7
Properties=species:S:1:pos:R:3:molID:I:1:forces_dft:R:3 Nmols=1 Comp=VC(2) energy_dft=-3174.524580239450 pbc="F F F"
C	0.8929896	1.8763692	0.2589999	0	-0.0033247	0.0038812	-0.0002488
C	1.6569793	0.8255797	0.2384799	0	-0.0052928	0.0030582	0.0032083
C	2.4223690	-0.2242199	0.2162199	0	-0.0037121	-0.0051073	-0.0034636
H	2.0242992	-1.2005095	-0.0336200	0	0.0001703	-0.0029797	-0.0020508
H	3.4786886	-0.1484300	0.4457598	0	0.0044811	0.0004098	0.0022601
H	0.7511897	2.4793690	-0.6299798	0	0.0024414	0.0009052	-0.0012672
H	0.3801399	2.1764591	1.1650695	0	0.0010066	0.0032052	0.0025393
