8
Properties=species:S:1:pos:R:3:molID:I:1:forces_dft:R:3 Nmols=1 Comp=VC(1) energy_dft=-3644.980009000832 pbc="F F F"
C	-2.2157491	-0.3716098	0.6600297	0	0.0013582	0.0110952	-0.0054578
N	-1.0003696	0.2499299	0.1873499	0	0.0010606	0.0020474	0.0008139
C	-1.0953796	1.1147996	-0.7191597	0	-0.0038881	-0.0065130	0.0061730
H	-2.0531892	1.4177594	-1.1636095	0	-0.0007365	-0.0009269	-0.0028933
H	-0.1944399	1.5970694	-1.0942696	0	0.0004573	0.0031056	0.0006251
H	-2.1353892	-1.4520594	0.5257898	0	0.0034218	-0.0057552	0.0010585
H	-3.1196988	-0.0112800	0.1501700	0	-0.0024692	0.0005138	-0.0025442
H	-2.3143191	-0.1890599	1.7318693	0	-0.0039971	0.0049404	0.0037803
