5
Properties=species:S:1:pos:R:3:molID:I:1:forces_dft:R:3 Nmols=1 Comp=VC(2) energy_dft=-5164.490507930811 pbc="F F F"
O	1.5424494	0.7054597	-1.0573596	0	0.0010397	0.0008745	-0.0036159
C	1.5462394	-0.4429698	-1.3843795	0	0.0003464	0.0238266	-0.0013764
O	0.6911897	-1.3687095	-0.9389397	0	0.0039592	-0.0122003	-0.0099535
H	0.0890600	-0.9349596	-0.3189099	0	0.0000989	-0.0012909	-0.0001490
H	2.2517391	-0.8945796	-2.0939192	0	0.0000838	-0.0045808	0.0014421
