6
Properties=species:S:1:pos:R:3:molID:I:1:forces_dft:R:3 Nmols=1 Comp=VC(1) energy_dft=-2138.595401572205 pbc="F F F"
C	-2.3175691	1.1824896	0.2409599	0	-0.0034196	0.0065235	0.0009080
C	-2.3448791	0.1292800	-0.5575698	0	0.0033132	-0.0064551	-0.0005947
H	-1.9702792	0.1761999	-1.5738294	0	0.0060853	0.0028656	-0.0039128
H	-2.7416989	-0.8240297	-0.2274899	0	-0.0027430	-0.0017922	-0.0028916
H	-2.6921589	1.1355896	1.2572195	0	-0.0060366	-0.0028846	0.0038046
H	-1.9207393	2.1357792	-0.0891700	0	0.0027957	0.0017535	0.0026839
