6
Properties=species:S:1:pos:R:3:molID:I:1:forces_dft:R:3 Nmols=1 Comp=VC(2) energy_dft=-5188.351286731946 pbc="F F F"
C	1.3044595	0.1486900	-1.3999895	0	-0.0056847	0.0145304	-0.0117737
O	0.8773696	0.9549296	-2.1182992	0	0.0065239	-0.0074010	0.0135206
C	1.9359792	-0.7522897	-0.7238897	0	0.0017272	-0.0087634	0.0000646
C	2.0202992	-1.5736494	0.3005299	0	0.0038604	0.0033556	0.0058404
H	1.2359595	-1.6539094	1.0508696	0	-0.0023176	-0.0000811	0.0020414
H	2.8854289	-2.2161591	0.4417698	0	-0.0000484	-0.0027581	-0.0026859
