9
Properties=species:S:1:pos:R:3:molID:I:1:forces_dft:R:3 Nmols=1 Comp=VC(1) energy_dft=-4681.478227512700 pbc="F F F"
C	-2.1071792	-0.4751198	0.2328899	0	0.0114403	0.0044814	0.0013040
C	-1.3138895	0.2995299	-0.7830797	0	-0.0005779	-0.0055779	0.0033590
C	-0.4721398	1.2486995	-0.4767798	0	0.0027246	0.0069354	-0.0033007
N	0.2294599	2.2082691	-0.1931599	0	-0.0122713	-0.0013927	-0.0014634
H	1.2065595	1.9883792	-0.0170600	0	0.0071099	-0.0005702	0.0016604
H	-1.4302494	0.0722700	-1.8365393	0	0.0000970	-0.0041078	-0.0027494
H	-1.8838193	-0.1412399	1.2458795	0	0.0009298	0.0030560	0.0041966
H	-3.1792087	-0.3485998	0.0659500	0	-0.0042750	0.0019611	-0.0022945
H	-1.8869292	-1.5432794	0.1730799	0	0.0008090	-0.0043739	0.0017353
