4
Properties=species:S:1:pos:R:3:molID:I:1:forces_dft:R:3 Nmols=1 Comp=VC(2) energy_dft=-3116.136243427312 pbc="F F F"
C	2.5401490	-0.4614198	-0.2674799	0	-0.0006415	0.0058254	0.0080661
O	2.4638490	0.5494498	0.3667499	0	-0.0064999	-0.0134548	-0.0058746
H	3.3451487	-1.2014595	-0.0952300	0	0.0054786	-0.0000770	0.0017727
H	1.8091193	-0.7113597	-1.0601696	0	-0.0030259	0.0008325	-0.0001860
