6
Properties=species:S:1:pos:R:3:molID:I:1:forces_dft:R:3 Nmols=1 Comp=VC(2) energy_dft=-3611.576900895247 pbc="F F F"
C	2.6840789	-1.1958495	-1.4935094	0	-0.0036354	-0.0095020	0.0028007
C	2.0346292	-0.0962999	-1.2248795	0	-0.0026968	0.0068763	0.0038880
N	1.5037494	0.9815696	-1.0277196	0	0.0060224	0.0081653	-0.0035907
H	0.6490497	0.9600196	-0.4793398	0	-0.0045283	-0.0029105	0.0018436
H	2.4516891	-1.7582293	-2.3859791	0	-0.0015937	0.0008520	-0.0038507
H	3.4497386	-1.5494294	-0.8185397	0	0.0024735	0.0002694	0.0012682
