4
Properties=species:S:1:pos:R:3:molID:I:1:forces_dft:R:3 Nmols=1 Comp=VC(1) energy_dft=-3116.136796240481 pbc="F F F"
C	-1.7914193	-1.0667696	-1.0710096	0	0.0032064	-0.0167936	0.0056937
O	-1.5190994	-2.1883792	-0.7582097	0	0.0003154	-0.0062215	-0.0048174
H	-1.4046494	-0.6083998	-2.0013792	0	0.0005811	0.0054741	-0.0003432
H	-2.4434790	-0.4264298	-0.4465698	0	-0.0030205	0.0020628	-0.0016600
