10
Properties=species:S:1:pos:R:3:molID:I:1:forces_dft:R:3 Nmols=1 Comp=VC(1) energy_dft=-5255.836866371909 pbc="F F F"
C	-1.4235094	1.1999095	-0.2140899	0	0.0018664	-0.0026234	0.0017494
C	-1.0348096	0.2511099	0.8750297	0	-0.0126061	0.0002258	-0.0007004
C	-1.2923395	-1.0460396	0.8401897	0	0.0036057	-0.0032338	0.0002028
O	-0.9254996	-1.8903893	1.8474492	0	0.0066611	0.0106227	0.0173691
H	-1.2013495	-2.7815389	1.6355694	0	-0.0033485	-0.0051566	-0.0035661
H	-1.8109493	-1.5040694	0.0006100	0	-0.0024593	0.0014437	-0.0034037
H	-0.5134298	0.6468098	1.7414993	0	0.0015665	-0.0002680	0.0009246
H	-0.5472598	1.6910894	-0.6453098	0	0.0023340	-0.0014928	-0.0013802
H	-2.0812492	1.9886592	0.1602799	0	0.0035476	0.0038045	0.0057542
H	-1.9472492	0.6853297	-1.0221996	0	-0.0023277	-0.0046181	-0.0003205
