7
Properties=species:S:1:pos:R:3:molID:I:1:forces_dft:R:3 Nmols=1 Comp=VC(1) energy_dft=-4185.950555135863 pbc="F F F"
C	1.8502193	-0.3528699	1.4421195	0	0.0067241	0.0007307	0.0021988
C	2.2710891	0.4915598	0.5116298	0	-0.0078279	-0.0038078	0.0059221
O	1.9934592	0.4439098	-0.8117997	0	-0.0009523	0.0091936	-0.0040448
H	1.4279494	-0.3118099	-0.9925996	0	-0.0011120	-0.0014856	0.0010626
H	2.9088589	1.3376895	0.7396297	0	0.0027870	0.0010646	-0.0024423
H	2.1410991	-0.2072199	2.4718990	0	0.0020062	-0.0002286	0.0033575
H	1.2119995	-1.1982695	1.2092895	0	-0.0020252	-0.0000687	0.0016481
