4
Properties=species:S:1:pos:R:3:molID:I:1:forces_dft:R:3 Nmols=1 Comp=VC(1) energy_dft=-3116.135674880592 pbc="F F F"
C	2.6390590	0.9795596	0.9407396	0	0.0063355	-0.0169406	-0.0015220
O	2.9755588	-0.1479099	0.7276497	0	-0.0048200	0.0135392	-0.0002334
H	3.1885488	1.8444893	0.5218198	0	0.0050023	0.0062424	0.0019982
H	1.7589193	1.2195195	1.5678494	0	-0.0056867	0.0011366	-0.0000970
