6
Properties=species:S:1:pos:R:3:molID:I:1:forces_dft:R:3 Nmols=1 Comp=VC(2) energy_dft=-5188.351133673590 pbc="F F F"
C	0.3732599	0.0184600	1.4540394	0	-0.0144873	-0.0010052	0.0069780
O	-0.6741598	-0.1724099	1.9171792	0	0.0056166	0.0012775	-0.0064712
C	1.5676094	0.0333100	0.9614796	0	0.0073643	-0.0040755	0.0006136
C	2.5773990	0.6878897	0.4287298	0	0.0000864	-0.0007187	0.0019086
H	2.5465290	1.7609493	0.2489599	0	0.0005622	0.0037178	-0.0050454
H	3.4941786	0.1798899	0.1413199	0	0.0022247	0.0009982	-0.0017397
