11
Properties=species:S:1:pos:R:3:molID:I:1:forces_dft:R:3 Nmols=1 Comp=VC(1) energy_dft=-7199.744845665986 pbc="F F F"
C	2.6200290	0.3180699	-0.1257700	0	-0.0112685	0.0005080	0.0025434
N	1.3519095	0.3425399	0.5736398	0	0.0128230	0.0055186	-0.0040211
C	0.1561199	0.0885300	-0.0348300	0	-0.0059474	-0.0039368	0.0006918
O	0.2664299	0.1188599	-1.3767595	0	-0.0000704	-0.0002426	0.0084563
H	-0.6262298	-0.0341100	-1.7057693	0	-0.0051809	-0.0002693	-0.0038401
N	-0.9794496	-0.1321699	0.4923298	0	0.0012261	-0.0011790	-0.0085192
H	-0.9457696	-0.1270900	1.5041294	0	0.0029398	-0.0005080	0.0073991
H	1.3717194	0.1495499	1.5578094	0	-0.0005073	-0.0029675	0.0070408
H	2.5812390	0.9706896	-0.9956696	0	0.0010559	0.0027176	-0.0038199
H	2.9022289	-0.6851897	-0.4597698	0	0.0020836	-0.0020484	-0.0033699
H	3.3907187	0.6927097	0.5468098	0	0.0044857	0.0025733	0.0009862
