6
Properties=species:S:1:pos:R:3:molID:I:1:forces_dft:R:3 Nmols=1 Comp=VC(1) energy_dft=-2138.595995030227 pbc="F F F"
C	-2.3287691	0.0841600	-0.3909098	0	0.0043138	0.0046958	-0.0008147
C	-2.1016192	-0.8606697	0.5053098	0	-0.0040296	-0.0043151	0.0013155
H	-2.6569490	-1.7916793	0.5039798	0	-0.0021864	-0.0020309	0.0022784
H	-1.3504595	-0.7419397	1.2779195	0	0.0015599	-0.0017376	0.0011625
H	-1.7734893	1.0151896	-0.3896999	0	0.0018997	0.0018889	-0.0026507
H	-3.0799188	-0.0346800	-1.1635196	0	-0.0015579	0.0014959	-0.0012901
