8
Properties=species:S:1:pos:R:3:molID:I:1:forces_dft:R:3 Nmols=1 Comp=VC(1) energy_dft=-5220.924469042870 pbc="F F F"
O	-0.0370700	0.1431299	0.9200396	0	-0.0031500	0.0127927	0.0029225
C	-1.2469195	-0.4212698	0.4836698	0	0.0080129	-0.0079116	0.0036546
H	-2.0563592	0.1761500	0.8928997	0	-0.0021292	-0.0001688	-0.0008925
C	-1.3648695	-1.1133496	-0.8165397	0	-0.0002292	0.0001917	0.0011899
H	-1.3721495	-1.0356696	-1.8914193	0	-0.0001271	0.0007910	-0.0054931
C	-1.3913195	-1.8710993	0.2380699	0	-0.0045390	0.0061069	0.0020530
H	-1.4358895	-2.8640589	0.6544498	0	0.0000384	-0.0037112	0.0007746
H	0.6859897	-0.3779899	0.5625998	0	0.0027752	-0.0020779	-0.0015581
