10
Properties=species:S:1:pos:R:3:molID:I:1:forces_dft:R:3 Nmols=1 Comp=VC(2) energy_dft=-4244.497682963619 pbc="F F F"
C	-0.8323797	-0.4402398	-0.6471998	0	-0.0122926	-0.0028220	0.0035695
C	-1.1635395	-1.2969395	0.5415198	0	0.0047282	-0.0036547	-0.0100214
H	-2.0952992	-1.8431893	0.3770998	0	-0.0015709	-0.0039693	-0.0012893
H	-0.3791199	-2.0371492	0.7155497	0	0.0028507	0.0003786	0.0032149
H	-1.2723995	-0.6934597	1.4418094	0	0.0022096	0.0017142	0.0019821
C	-0.7113897	0.8545097	-0.6131998	0	0.0021290	-0.0002908	0.0061352
C	-0.5924797	2.1492892	-0.5734298	0	0.0014582	0.0014659	-0.0026724
H	0.3638698	2.6185290	-0.3721999	0	0.0010050	0.0010563	0.0026493
H	-1.4455594	2.7962089	-0.7437897	0	-0.0010308	0.0017681	0.0003742
H	-0.6873297	-0.9384396	-1.6024794	0	-0.0008732	-0.0030598	-0.0019077
