4
Properties=species:S:1:pos:R:3:molID:I:1:forces_dft:R:3 Nmols=1 Comp=VC(1) energy_dft=-3116.135957413892 pbc="F F F"
C	-1.8955593	0.7081797	0.3577999	0	0.0084716	-0.0078571	0.0131556
O	-1.4142995	0.3100299	1.3774695	0	0.0024038	0.0060124	-0.0111868
H	-1.2722695	0.9919896	-0.5117698	0	0.0020136	0.0030817	0.0014506
H	-2.9899488	0.8146697	0.2289099	0	-0.0077746	0.0017855	-0.0009790
