7
Properties=species:S:1:pos:R:3:molID:I:1:forces_dft:R:3 Nmols=1 Comp=VC(2) energy_dft=-3174.526338973948 pbc="F F F"
C	0.8914597	-1.2900995	-1.4183595	0	0.0020500	-0.0013839	0.0039091
C	1.8470892	-0.6280698	-0.8379497	0	0.0013333	0.0022821	0.0040214
C	2.8027189	0.0319500	-0.2553599	0	-0.0021265	0.0071814	-0.0033168
H	3.2246587	-0.3112099	0.6818297	0	0.0005181	0.0043717	0.0015479
H	3.2013688	0.9400397	-0.6917598	0	-0.0008655	0.0009000	-0.0022942
H	1.1105995	-2.0737392	-2.1338091	0	0.0029660	-0.0023059	0.0015448
H	-0.1480899	-1.0743496	-1.2017595	0	-0.0034723	-0.0002723	-0.0001914
