7
Properties=species:S:1:pos:R:3:molID:I:1:forces_dft:R:3 Nmols=1 Comp=VC(2) energy_dft=-3174.525447430196 pbc="F F F"
C	1.6127294	2.1054492	0.8310897	0	-0.0069308	0.0069393	-0.0050932
C	1.9320192	0.8993997	0.4680898	0	0.0014615	0.0022768	0.0020862
C	2.2518491	-0.3062099	0.1040500	0	-0.0046692	-0.0041645	0.0027046
H	1.5009994	-1.0832996	0.0243900	0	-0.0002272	-0.0031432	0.0023054
H	3.2778387	-0.5631398	-0.1316000	0	0.0030312	-0.0007557	-0.0016389
H	1.3307795	2.8518889	0.0981099	0	0.0010362	-0.0000588	-0.0015054
H	1.6219594	2.3946291	1.8753693	0	0.0007699	0.0005959	0.0048535
