7
Properties=species:S:1:pos:R:3:molID:I:1:forces_dft:R:3 Nmols=1 Comp=VC(2) energy_dft=-3174.524278629653 pbc="F F F"
C	1.0662296	1.0470796	-1.3747495	0	-0.0028125	0.0015306	0.0008013
C	2.0435192	0.3182899	-0.9252496	0	0.0070968	0.0038194	-0.0108606
C	3.0176288	-0.4132298	-0.4732698	0	-0.0034748	-0.0069149	0.0023789
H	3.3469287	-0.3289099	0.5556198	0	0.0009111	0.0043007	0.0030720
H	3.5261686	-1.1238495	-1.1138496	0	-0.0007079	-0.0020727	0.0009202
H	1.2513095	2.0188592	-1.8169093	0	0.0028230	0.0029335	-0.0008290
H	0.0411500	0.7003597	-1.3182395	0	-0.0039244	-0.0009634	0.0039997
