10
Properties=species:S:1:pos:R:3:molID:I:1:forces_dft:R:3 Nmols=1 Comp=VC(1) energy_dft=-5255.869524362332 pbc="F F F"
C	-2.1409492	-1.0809996	-0.8415397	0	0.0042999	0.0053517	0.0062603
C	-1.7841493	0.0628400	0.0540100	0	0.0006978	-0.0010933	0.0103711
C	-0.7649497	0.0798199	0.8998597	0	0.0026027	0.0006679	-0.0091847
O	0.0896000	-0.9753696	1.0437996	0	0.0111556	0.0066068	-0.0042902
H	0.7489597	-0.7663797	1.7042994	0	-0.0002871	0.0005793	-0.0001673
H	-0.5597698	0.9437096	1.5248494	0	-0.0014444	0.0027180	0.0035478
H	-2.3973590	0.9557696	0.0207500	0	-0.0001249	0.0022784	0.0044711
H	-2.1062692	-0.7821797	-1.8925293	0	0.0058156	-0.0004212	-0.0054428
H	-1.4574094	-1.9177793	-0.7043997	0	0.0003987	-0.0024646	-0.0001818
H	-3.1561087	-1.4333495	-0.6415898	0	-0.0022898	-0.0019303	0.0021357
