6
Properties=species:S:1:pos:R:3:molID:I:1:forces_dft:R:3 Nmols=1 Comp=VC(2) energy_dft=-5188.351430211807 pbc="F F F"
O	0.8655796	-2.5348390	0.4829598	0	0.0034918	0.0176929	0.0012712
C	1.2035295	-1.4319794	0.6178698	0	-0.0074610	-0.0108323	0.0028473
C	1.7032393	-0.2763899	0.9032796	0	-0.0007330	0.0036789	0.0014376
C	1.7714493	1.0260796	0.7310297	0	0.0011780	0.0010760	0.0011541
H	2.4607590	1.6385294	1.3063495	0	0.0038817	0.0009722	-0.0034778
H	1.1461996	1.5533494	0.0129500	0	-0.0020880	0.0000923	0.0000576
