6
Properties=species:S:1:pos:R:3:molID:I:1:forces_dft:R:3 Nmols=1 Comp=VC(2) energy_dft=-3611.576722089819 pbc="F F F"
C	-2.0824692	1.3240095	-1.3364295	0	-0.0026703	0.0035171	-0.0020608
C	-2.1347392	0.3776399	-0.4395298	0	0.0008841	-0.0069540	0.0024255
N	-2.2886891	-0.5036898	0.3863699	0	-0.0070112	0.0051013	-0.0033761
H	-1.4395095	-0.8677996	0.8080997	0	0.0009656	0.0004442	0.0020194
H	-1.9954992	1.0735896	-2.3836291	0	0.0027494	-0.0005700	-0.0036380
H	-2.1165991	2.3600990	-1.0325796	0	-0.0013069	0.0041447	0.0007427
