3
Properties=species:S:1:pos:R:3:molID:I:1:forces_dft:R:3 Nmols=1 Comp=VC(1) energy_dft=-2542.351333074393 pbc="F F F"
C	2.9646088	0.8092497	-0.0060800	0	0.0101588	0.0003755	-0.0010705
N	4.1017884	0.8311997	-0.1254200	0	-0.0037643	-0.0002638	-0.0000521
H	1.9022592	0.7885697	0.1053499	0	-0.0072081	0.0009886	0.0009942
