9
Properties=species:S:1:pos:R:3:molID:I:1:forces_dft:R:3 Nmols=1 Comp=VC(1) energy_dft=-3208.625278827742 pbc="F F F"
C	-1.9169492	0.4837298	-0.7450597	0	0.0000151	-0.0060539	0.0063889
C	-1.9243593	-0.9340296	-0.2693999	0	0.0038648	-0.0007878	0.0027528
C	-1.2986995	-1.3785095	0.8092997	0	0.0035989	0.0039393	-0.0044701
H	-0.7164697	-0.7150797	1.4408994	0	-0.0023120	0.0045746	0.0021117
H	-1.3425795	-2.4208390	1.1009696	0	-0.0017310	-0.0042687	0.0004986
H	-2.4949890	-1.6377394	-0.8712897	0	0.0020415	-0.0020541	-0.0017967
H	-1.5017194	0.5535698	-1.7538693	0	0.0033234	-0.0018328	-0.0021542
H	-2.9325589	0.8853296	-0.7915997	0	-0.0038909	0.0013455	0.0011139
H	-1.3256095	1.1218796	-0.0870000	0	-0.0018690	0.0031357	0.0039181
