8
Properties=species:S:1:pos:R:3:molID:I:1:forces_dft:R:3 Nmols=1 Comp=VC(2) energy_dft=-6233.088384946021 pbc="F F F"
C	0.9105996	1.2501495	1.7892893	0	-0.0038207	-0.0029528	-0.0064442
O	0.0958899	0.7828997	2.7655289	0	0.0023321	0.0130666	0.0087837
H	-0.0146900	-0.1640700	2.6270589	0	0.0014374	-0.0027201	-0.0011376
C	1.4472794	0.4948798	0.8414397	0	-0.0016144	-0.0005479	0.0126165
O	1.2240795	-0.8665197	0.8630196	0	0.0006240	0.0054604	0.0065258
H	1.1707996	-1.2017295	-0.0323200	0	-0.0012516	-0.0038111	-0.0046630
H	2.1107491	0.8949997	0.0860599	0	0.0002530	0.0000396	-0.0037665
H	1.1039096	2.3111691	1.8554892	0	-0.0010780	0.0042680	0.0022420
