10
Properties=species:S:1:pos:R:3:molID:I:1:forces_dft:R:3 Nmols=1 Comp=VC(1) energy_dft=-5256.080830566807 pbc="F F F"
C	-1.8132593	1.2961895	-0.5400398	0	0.0123477	-0.0062698	0.0042506
C	-1.0144596	0.1624399	0.0090800	0	-0.0040823	0.0026726	-0.0013934
O	-0.6391698	0.4111198	1.2932795	0	-0.0095771	0.0019240	0.0008328
H	-0.1270599	-0.3311099	1.6236393	0	0.0022553	-0.0005051	0.0001685
C	-0.7028897	-0.9488596	-0.6508897	0	0.0010209	0.0004474	0.0039256
H	-1.0294096	-1.0900396	-1.6703693	0	-0.0006033	0.0001702	-0.0021880
H	-0.1203100	-1.7408193	-0.1940699	0	0.0015265	-0.0011960	-0.0001150
H	-2.7053389	1.4535494	0.0694500	0	-0.0027639	-0.0033512	0.0033151
H	-2.1127792	1.0993796	-1.5672194	0	0.0031224	0.0014335	-0.0026737
H	-1.2275695	2.2170291	-0.5086798	0	-0.0008780	0.0027328	-0.0004627
