9
Properties=species:S:1:pos:R:3:molID:I:1:forces_dft:R:3 Nmols=1 Comp=VC(1) energy_dft=-3208.626291352180 pbc="F F F"
C	-1.5047794	0.3163099	1.0844396	0	-0.0039704	0.0079234	-0.0019362
C	-1.9377692	-0.2541299	-0.2283599	0	0.0110903	-0.0056599	0.0040218
C	-1.2721895	-1.1672095	-0.9182996	0	-0.0019403	0.0021619	0.0018904
H	-0.3331499	-1.5754494	-0.5583298	0	0.0018460	-0.0003599	0.0001787
H	-1.6405794	-1.5420194	-1.8655193	0	-0.0006230	-0.0015106	-0.0029021
H	-2.8750689	0.1251599	-0.6294297	0	-0.0027823	-0.0006286	0.0004333
H	-2.2570091	0.1321099	1.8558792	0	-0.0002720	-0.0015530	0.0012493
H	-1.3798895	1.4001694	1.0157396	0	0.0001698	0.0041031	0.0002778
H	-0.5605798	-0.1170699	1.4170894	0	0.0027426	-0.0024577	0.0005359
