6
Properties=species:S:1:pos:R:3:molID:I:1:forces_dft:R:3 Nmols=1 Comp=VC(2) energy_dft=-3610.707215711026 pbc="F F F"
N	-1.1246596	1.6532393	-0.8626496	0	-0.0008136	-0.0091495	-0.0098338
C	-1.8087293	0.9862496	-0.0665100	0	0.0031037	-0.0038466	-0.0021566
H	-2.0354592	0.9546196	0.9898496	0	-0.0000346	-0.0026735	0.0051944
C	-1.9412293	0.4942298	-1.4184994	0	0.0034093	0.0091798	0.0096674
H	-1.3839795	-0.3773998	-1.7464693	0	-0.0044702	-0.0029367	-0.0040665
H	-2.8060389	0.7566697	-2.0194492	0	-0.0030232	0.0033624	-0.0019903
