6
Properties=species:S:1:pos:R:3:molID:I:1:forces_dft:R:3 Nmols=1 Comp=VC(2) energy_dft=-6199.472704606229 pbc="F F F"
C	2.3904190	0.0244300	-1.0697296	0	0.0042930	-0.0010955	-0.0156255
O	2.5851490	0.5516698	-2.0817992	0	-0.0057290	-0.0077694	-0.0129439
C	2.1896291	-0.5644298	0.0917400	0	0.0029283	0.0044245	0.0099147
O	1.2898995	-1.6108293	0.1976999	0	0.0018436	-0.0047691	-0.0033296
H	0.4887098	-1.2857195	0.6148598	0	-0.0029541	0.0011347	0.0032769
H	2.8188089	-0.2889099	0.9284796	0	0.0007355	0.0008766	-0.0002832
