9
Properties=species:S:1:pos:R:3:molID:I:1:forces_dft:R:3 Nmols=1 Comp=VC(2) energy_dft=-5693.325445689129 pbc="F F F"
N	0.6748597	0.6409998	-0.9753596	0	0.0001079	-0.0081782	0.0008511
C	1.2570695	0.1452299	0.0291500	0	0.0012544	0.0033590	-0.0131279
O	0.5365098	-0.5281098	0.9467596	0	0.0037403	0.0040214	0.0180699
H	-0.3789498	-0.5078998	0.6416298	0	-0.0060714	0.0006431	-0.0030251
C	2.7081889	0.1835299	0.3955799	0	-0.0050357	0.0004064	-0.0067186
H	3.2840587	0.7398397	-0.3406299	0	0.0012502	0.0019234	-0.0013877
H	3.0970588	-0.8331797	0.4659698	0	0.0019426	-0.0029636	-0.0018479
H	2.8271189	0.6488697	1.3749095	0	-0.0012962	0.0039686	0.0028463
H	1.3268395	1.1200795	-1.5843394	0	0.0016583	-0.0006156	0.0005997
