10
Properties=species:S:1:pos:R:3:molID:I:1:forces_dft:R:3 Nmols=1 Comp=VC(1) energy_dft=-4244.497338435975 pbc="F F F"
C	-0.7409697	-1.5825794	0.8736496	0	0.0061530	0.0027912	0.0030896
C	0.2718999	-1.1835195	-0.1615000	0	-0.0006167	0.0000704	-0.0021678
C	1.1377595	-0.2232499	-0.0190100	0	-0.0010972	-0.0014867	0.0024513
C	2.0016592	0.7382597	0.1269099	0	0.0012955	-0.0018480	0.0034728
H	1.7665593	1.7529993	-0.1738599	0	0.0000323	0.0027465	-0.0071113
H	2.9818188	0.5523298	0.5512698	0	0.0034048	-0.0020213	0.0008973
H	0.2804899	-1.7389693	-1.0959696	0	0.0030932	-0.0009211	-0.0005050
H	-0.6618497	-0.9590596	1.7633093	0	0.0007091	0.0009723	0.0026112
H	-0.6000698	-2.6250190	1.1687395	0	0.0018155	-0.0025541	0.0034822
H	-1.7546193	-1.4911594	0.4763798	0	-0.0048604	0.0019700	0.0004121
