6
Properties=species:S:1:pos:R:3:molID:I:1:forces_dft:R:3 Nmols=1 Comp=VC(1) energy_dft=-2138.595711651469 pbc="F F F"
C	3.2591687	0.1443300	0.3594499	0	-0.0076625	0.0009246	0.0015504
C	2.0786592	-0.4503298	0.3525498	0	0.0088168	-0.0003720	-0.0013134
H	1.6704893	-0.8944996	-0.5481698	0	0.0000810	-0.0019554	-0.0023001
H	1.4703394	-0.5163698	1.2474295	0	-0.0012573	-0.0009916	0.0019992
H	3.8673785	0.2103099	-0.5354998	0	0.0005978	0.0006500	-0.0022231
H	3.6673085	0.5884998	1.2601695	0	-0.0005746	0.0017506	0.0022825
