9
Properties=species:S:1:pos:R:3:molID:I:1:forces_dft:R:3 Nmols=1 Comp=VC(2) energy_dft=-4681.478916992188 pbc="F F F"
C	1.7256393	0.3865598	0.7186997	0	-0.0010760	-0.0028367	-0.0080295
C	2.4848290	-0.3187199	-0.3712698	0	-0.0019617	0.0079268	0.0035969
H	2.3520690	-1.4010695	-0.3068799	0	-0.0022412	-0.0047353	-0.0013976
H	2.1499892	0.0046300	-1.3565595	0	-0.0017820	0.0016670	-0.0034820
H	3.5545386	-0.1117900	-0.2948499	0	0.0042679	0.0014301	-0.0006541
C	0.7696097	1.2468095	0.4966298	0	-0.0000291	0.0064672	0.0016979
N	-0.0472300	2.1303192	0.2828699	0	0.0054135	-0.0029830	-0.0033460
H	-1.0100596	1.8130693	0.2026299	0	-0.0062791	-0.0028121	-0.0013613
H	1.9631492	0.1785199	1.7556793	0	0.0007391	0.0005122	0.0040765
