6
Properties=species:S:1:pos:R:3:molID:I:1:forces_dft:R:3 Nmols=1 Comp=VC(2) energy_dft=-4623.157397419410 pbc="F F F"
N	2.0648692	-0.8710397	-0.0540800	0	-0.0082953	-0.0027399	-0.0017088
C	2.3733291	0.0519700	-0.8505497	0	0.0005813	-0.0042304	0.0027480
O	1.5203694	1.0329996	-1.1658995	0	0.0006453	0.0102320	-0.0028287
H	0.7043297	0.8631497	-0.6770697	0	-0.0025778	-0.0013317	0.0028352
H	3.3224187	0.1839499	-1.3719895	0	0.0020682	-0.0025902	-0.0014041
H	2.8287189	-1.5249994	0.0684500	0	0.0050460	-0.0003804	0.0011950
