7
Properties=species:S:1:pos:R:3:molID:I:1:forces_dft:R:3 Nmols=1 Comp=VC(2) energy_dft=-4185.951791573607 pbc="F F F"
C	2.1722591	0.2266399	0.7657897	0	-0.0017990	-0.0052163	-0.0085855
C	1.9928192	0.5235098	-0.5131298	0	0.0056739	0.0006123	0.0110648
O	1.3054695	-0.2016499	-1.4252895	0	-0.0018758	0.0010764	-0.0131282
H	0.9540996	-0.9920396	-1.0064096	0	-0.0000144	-0.0021309	0.0029591
H	2.4022391	1.4197495	-0.9645296	0	-0.0006290	0.0016962	-0.0016103
H	2.7461489	0.8890396	1.3966695	0	-0.0005181	0.0036943	0.0015528
H	1.7603693	-0.6712998	1.2133095	0	-0.0021060	-0.0002153	0.0013107
