6
Properties=species:S:1:pos:R:3:molID:I:1:forces_dft:R:3 Nmols=1 Comp=VC(2) energy_dft=-5188.351779965647 pbc="F F F"
C	1.6920093	-1.3688194	-0.1094799	0	-0.0048936	-0.0119104	0.0029637
O	1.5032494	-2.5056490	0.0322400	0	0.0019859	0.0015293	-0.0035004
C	2.0946292	-0.1548499	-0.2913699	0	0.0040737	0.0055877	-0.0008550
C	1.8438593	1.1335596	-0.3845499	0	0.0075934	-0.0010194	-0.0008488
H	0.8408697	1.5421894	-0.2760699	0	-0.0027159	0.0012830	-0.0014043
H	2.6352990	1.8532093	-0.5766598	0	-0.0011267	0.0008198	-0.0009621
