8
Properties=species:S:1:pos:R:3:molID:I:1:forces_dft:R:3 Nmols=1 Comp=VC(2) energy_dft=-5117.730578876497 pbc="F F F"
N	-3.1045488	-0.1945099	-0.6790997	0	0.0013098	0.0076294	-0.0012624
C	-2.3062891	0.3949298	0.3477899	0	0.0035220	0.0026340	-0.0070863
C	-1.3154495	1.1960595	0.0364600	0	0.0039119	-0.0004674	0.0017485
N	-0.4674998	2.0310592	-0.2256899	0	-0.0063268	0.0037061	0.0008102
H	0.4691998	1.6652693	-0.3762599	0	0.0064306	-0.0008474	-0.0025913
H	-2.4813990	0.2060999	1.4044095	0	-0.0001710	0.0001859	0.0034999
H	-3.1240488	-1.2014995	-0.6018398	0	-0.0019576	-0.0098191	0.0002286
H	-4.0561384	0.1443700	-0.6478798	0	-0.0074149	0.0021743	0.0012934
