6
Properties=species:S:1:pos:R:3:molID:I:1:forces_dft:R:3 Nmols=1 Comp=VC(1) energy_dft=-3611.576969749723 pbc="F F F"
N	1.5820494	1.8224393	-0.9974996	0	0.0020889	0.0068939	0.0055319
C	1.9770292	0.6707597	-0.9982596	0	-0.0024020	0.0073031	-0.0007587
C	2.3759491	-0.5668798	-0.8881897	0	-0.0082756	-0.0046656	0.0009265
H	3.4095386	-0.7849097	-0.6622697	0	0.0043711	0.0003743	-0.0002870
H	1.6745993	-1.3754395	-1.0334696	0	0.0015164	-0.0016203	-0.0011585
H	1.6088094	2.3002391	-1.8933793	0	-0.0010176	0.0000910	-0.0038378
