10
Properties=species:S:1:pos:R:3:molID:I:1:forces_dft:R:3 Nmols=1 Comp=VC(1) energy_dft=-5255.604267189545 pbc="F F F"
C	-1.5969994	0.9079097	-0.5910998	0	0.0093699	-0.0019085	0.0071456
C	-1.3870794	0.5200098	0.6572697	0	-0.0072675	0.0032696	-0.0049005
C	-1.3007495	-0.9114396	1.0893296	0	0.0011154	-0.0013515	0.0052956
O	-0.0800400	-1.1949895	1.7502493	0	-0.0029698	0.0145938	0.0007876
H	0.6386798	-0.9618796	1.1589695	0	0.0000453	0.0017670	0.0003469
H	-2.0836592	-1.1343895	1.8178193	0	-0.0013777	-0.0041391	-0.0021154
H	-1.4514694	-1.5737894	0.2273599	0	0.0012941	-0.0029560	-0.0005024
H	-1.2456295	1.2573095	1.4436294	0	-0.0028248	-0.0010406	0.0025668
H	-1.6523594	1.9554993	-0.8613997	0	-0.0051977	0.0047431	0.0020880
H	-1.7331093	0.1860499	-1.3903994	0	0.0011774	0.0016255	-0.0026596
