10
Properties=species:S:1:pos:R:3:molID:I:1:forces_dft:R:3 Nmols=1 Comp=VC(2) energy_dft=-5256.081998795856 pbc="F F F"
C	1.4929394	-1.7378293	0.6422297	0	-0.0025033	0.0023099	-0.0044903
C	0.8459297	-0.6934297	0.1342399	0	0.0025945	-0.0015833	0.0031903
O	-0.1589500	-0.7950097	-0.7777197	0	-0.0005066	0.0164083	0.0078492
H	-0.3119599	-1.7212793	-0.9801496	0	-0.0009062	-0.0039250	-0.0026004
C	1.1107496	0.7343097	0.4755298	0	-0.0031933	-0.0010936	0.0082409
H	1.3805595	1.2903495	-0.4244998	0	0.0004139	-0.0007537	-0.0028696
H	1.9161492	0.8198397	1.2018095	0	0.0026801	0.0022886	-0.0004626
H	0.2089399	1.1923895	0.8865697	0	-0.0008158	0.0001662	0.0014705
H	2.2818791	-1.5925294	1.3649095	0	0.0006302	0.0008859	0.0005211
H	1.2526895	-2.7552589	0.3549999	0	-0.0006828	-0.0033318	-0.0037904
