11
Properties=species:S:1:pos:R:3:molID:I:1:forces_dft:R:3 Nmols=1 Comp=VC(1) energy_dft=-6291.718532337499 pbc="F F F"
C	-0.3783199	-1.8206893	0.6337797	0	0.0042842	0.0063354	-0.0050069
C	-0.0215400	-0.9187797	-0.5011498	0	-0.0074332	0.0031950	-0.0002984
O	-0.8570797	-1.0891696	-1.5751094	0	-0.0049118	0.0035844	0.0118020
H	-0.5934998	-0.4861298	-2.2744591	0	-0.0023409	0.0014520	0.0020365
C	0.9664896	-0.0635200	-0.4861498	0	-0.0046875	-0.0071440	-0.0036171
C	1.9506392	0.7896197	-0.4678298	0	0.0081543	0.0003465	0.0029175
H	1.8129693	1.8094393	-0.1198800	0	-0.0006920	0.0021521	0.0032083
H	2.9489588	0.5135798	-0.7951797	0	0.0020179	0.0001094	-0.0045099
H	-1.4026395	-1.6229193	0.9563796	0	-0.0031963	0.0027074	0.0020593
H	0.2973499	-1.6704893	1.4728094	0	0.0011808	-0.0000093	0.0003443
H	-0.3243099	-2.8625488	0.3110299	0	0.0052575	-0.0049062	-0.0046942
