10
Properties=species:S:1:pos:R:3:molID:I:1:forces_dft:R:3 Nmols=1 Comp=VC(2) energy_dft=-5255.837556380440 pbc="F F F"
C	-2.4535091	0.6310198	-0.1716399	0	0.0115052	0.0055009	-0.0052612
C	-2.8977189	1.8183693	0.6223198	0	-0.0040891	-0.0061854	-0.0132169
H	-3.7269885	2.3361291	0.1331699	0	-0.0033937	0.0009018	0.0010728
H	-3.2463687	1.5239494	1.6157694	0	-0.0045482	-0.0005660	0.0029044
H	-2.0867092	2.5373190	0.7540397	0	0.0020746	0.0006191	-0.0001896
C	-1.2255495	0.4830498	-0.6410497	0	-0.0052388	0.0093883	-0.0030850
O	-0.8465497	-0.6120598	-1.3616495	0	-0.0006595	0.0002002	0.0006561
H	0.0740900	-0.5308898	-1.6086493	0	0.0063572	0.0017972	-0.0026709
H	-0.4548798	1.2322595	-0.4725798	0	0.0017433	-0.0002070	0.0008555
H	-3.1772088	-0.1530299	-0.3735899	0	-0.0005328	-0.0007596	-0.0027829
