7
Properties=species:S:1:pos:R:3:molID:I:1:forces_dft:R:3 Nmols=1 Comp=VC(1) energy_dft=-4185.951567850318 pbc="F F F"
C	1.7099993	-0.1181399	0.7280297	0	-0.0031654	0.0005021	-0.0082684
C	1.8479893	-0.4485798	-0.5477798	0	0.0017337	-0.0008885	0.0111831
O	0.9130396	-0.3372198	-1.5195394	0	0.0078973	-0.0049396	-0.0024089
H	0.1053699	0.0256000	-1.1457995	0	-0.0012893	0.0022330	0.0026591
H	2.7688889	-0.8576196	-0.9469196	0	0.0011145	-0.0006761	-0.0036544
H	0.7862297	0.2910599	1.1223695	0	-0.0015231	0.0021962	0.0017922
H	2.5340790	-0.2558199	1.4121894	0	0.0001355	0.0009117	0.0012471
