7
Properties=species:S:1:pos:R:3:molID:I:1:forces_dft:R:3 Nmols=1 Comp=VC(2) energy_dft=-4185.950530754367 pbc="F F F"
C	2.4437690	1.0366196	0.3065099	0	-0.0031511	0.0019703	-0.0005384
C	2.3455391	0.2462299	-0.7526097	0	0.0041866	0.0014627	0.0004701
O	1.2316195	-0.0005100	-1.4798994	0	-0.0064418	-0.0024633	0.0020808
H	0.4936998	0.4933198	-1.1121095	0	-0.0016934	0.0034947	0.0015110
H	3.1926287	-0.2999799	-1.1510096	0	0.0023243	-0.0026407	0.0008826
H	3.3947887	1.1507695	0.8053197	0	0.0030443	-0.0025877	0.0025533
H	1.5934494	1.5813394	0.7019197	0	-0.0011760	0.0025634	-0.0026562
