5
Properties=species:S:1:pos:R:3:molID:I:1:forces_dft:R:3 Nmols=1 Comp=VC(2) energy_dft=-5164.490413329508 pbc="F F F"
O	-0.3103499	0.7713897	-1.9179492	0	0.0087563	-0.0023121	0.0036518
C	0.8735497	0.6214698	-1.9603692	0	-0.0135061	0.0045951	-0.0037872
O	1.6210693	0.1443300	-0.9604496	0	0.0041834	-0.0019740	-0.0087029
H	1.0293196	-0.0481900	-0.2201799	0	-0.0010201	-0.0010680	0.0015942
H	1.5091594	0.8548897	-2.8244589	0	0.0038728	-0.0010042	0.0005795
