8
Properties=species:S:1:pos:R:3:molID:I:1:forces_dft:R:3 Nmols=1 Comp=VC(1) energy_dft=-4210.698753824471 pbc="F F F"
C	-0.9731296	-1.7500193	0.8524097	0	0.0040431	0.0027286	-0.0001304
C	0.3182599	-1.9739092	1.0676696	0	-0.0021820	0.0028867	0.0011802
C	1.2949895	-0.9388496	1.1935495	0	0.0049220	0.0065091	0.0022278
C	2.1330591	-0.0881500	1.3019095	0	-0.0102675	-0.0133862	-0.0034183
H	2.8721089	0.6712398	1.4009494	0	0.0007988	0.0026087	-0.0014591
H	0.6881897	-2.9902088	1.1590796	0	0.0003263	-0.0038812	0.0045953
H	-1.6706394	-2.5730690	0.7643597	0	-0.0005899	-0.0034316	-0.0000180
H	-1.3658294	-0.7451397	0.7584797	0	-0.0026807	0.0032735	0.0008566
