6
Properties=species:S:1:pos:R:3:molID:I:1:forces_dft:R:3 Nmols=1 Comp=VC(2) energy_dft=-3610.707832071630 pbc="F F F"
N	-1.0526996	-0.7621397	-0.4316598	0	-0.0061877	-0.0030339	0.0039351
C	-1.1746095	0.3023299	0.1994999	0	-0.0043186	-0.0021815	-0.0006008
H	-0.6572597	1.2430895	0.3237399	0	0.0017287	0.0002697	0.0016631
C	-2.2602491	-0.6080698	0.4833698	0	0.0049115	-0.0028695	-0.0051298
H	-2.2583791	-1.2031395	1.3909095	0	-0.0010484	0.0006931	0.0008291
H	-3.2232488	-0.4880898	-0.0025700	0	-0.0041459	-0.0007263	-0.0026603
