6
Properties=species:S:1:pos:R:3:molID:I:1:forces_dft:R:3 Nmols=1 Comp=VC(2) energy_dft=-3611.577113872889 pbc="F F F"
C	2.0343292	-0.3426499	0.1784399	0	0.0009996	0.0042181	0.0047088
C	1.3414395	0.4073498	-0.6341497	0	0.0003099	0.0021540	-0.0074671
N	0.7852597	1.1262496	-1.4442394	0	0.0068054	-0.0026500	0.0009124
H	-0.2143099	1.2505295	-1.3130295	0	-0.0076669	0.0034614	0.0040498
H	2.1566392	-1.3960095	-0.0273800	0	-0.0002434	-0.0042697	-0.0012229
H	2.4803990	0.0873500	1.0632696	0	0.0011533	-0.0001952	0.0008102
