14
Properties=species:S:1:pos:R:3:molID:I:1:forces_dft:R:3 Nmols=1 Comp=VC(1) energy_dft=-8372.881324610000 pbc="F F F"
C	-2.0807992	-0.4616198	-0.4866598	0	-0.0039493	0.0017671	-0.0008500
C	-0.5897798	-0.2624599	-0.6119998	0	0.0044594	0.0015571	-0.0005277
O	-0.1861299	0.7252897	0.3174299	0	0.0040520	0.0122343	-0.0102240
C	1.1938296	0.9479496	0.3186699	0	-0.0083642	-0.0030888	0.0024138
C	1.9584293	-0.1397499	1.0478296	0	0.0086027	-0.0067188	-0.0010753
O	3.1424988	-0.2982399	0.9554796	0	-0.0038626	0.0010278	-0.0023589
H	-2.6078990	0.4730498	-0.6812597	0	-0.0017107	0.0021515	0.0006827
H	-2.3394191	-0.7987897	0.5177698	0	0.0000192	-0.0010513	0.0046173
H	-2.4231991	-1.2097595	-1.2031695	0	0.0016613	-0.0032614	-0.0011370
H	-0.0580800	-1.2060495	-0.4213798	0	0.0015585	-0.0036961	-0.0067975
H	-0.3213499	0.0603300	-1.6277093	0	-0.0013316	-0.0046885	-0.0038692
H	1.3735094	1.8844092	0.8554497	0	-0.0005537	0.0042686	0.0030416
H	1.6055894	1.0597896	-0.6928797	0	0.0000414	-0.0017334	-0.0036287
H	1.3327995	-0.7741397	1.7124293	0	-0.0003257	0.0008717	0.0018623
