14
Properties=species:S:1:pos:R:3:molID:I:1:forces_dft:R:3 Nmols=1 Comp=VC(1) energy_dft=-8836.356312267946 pbc="F F F"
C	-1.0661396	-1.0226296	0.4722498	0	0.0019097	0.0029642	-0.0111067
C	-0.5675798	0.3666099	0.0638500	0	-0.0002431	-0.0092621	-0.0075615
C	0.8404697	0.3352699	-0.5361798	0	-0.0017350	0.0002457	-0.0058693
C	1.9231092	0.0962799	0.4822298	0	-0.0039393	-0.0118566	0.0091954
O	1.7460593	0.0447400	1.6676494	0	0.0045231	0.0005616	-0.0132002
C	-1.4951294	0.9829696	-0.8894496	0	0.0028902	0.0138085	0.0037514
N	-2.2161891	1.4509094	-1.6494194	0	0.0022059	0.0034590	0.0028648
H	-2.0600092	-0.9621796	0.9144197	0	-0.0033071	-0.0044512	0.0029448
H	-0.3878499	-1.4531294	1.2074395	0	-0.0006037	-0.0041737	-0.0004459
H	-1.1188796	-1.6827893	-0.3951399	0	-0.0037285	-0.0004720	-0.0008487
H	-0.5442598	1.0055296	0.9507996	0	0.0034784	0.0008775	0.0022655
H	0.9229596	-0.4292398	-1.3159595	0	0.0011466	-0.0019642	-0.0006696
H	1.0820296	1.2828395	-1.0305096	0	0.0030674	0.0007060	-0.0006458
H	2.9414188	-0.0151800	0.0580200	0	0.0035441	-0.0013830	-0.0006627
