18
Properties=species:S:1:pos:R:3:molID:I:1:forces_dft:R:3 Nmols=1 Comp=VC(1) energy_dft=-7892.307972924687 pbc="F F F"
C	2.0950792	0.1205400	-0.0314900	0	-0.0071384	-0.0031096	0.0063668
C	0.8398797	-0.7336297	0.0709800	0	0.0022134	0.0104238	0.0081211
C	-0.4890498	0.0458100	0.1640299	0	-0.0038851	-0.0090036	-0.0022871
C	-1.6530394	-0.9422696	0.3176999	0	0.0046444	0.0080672	-0.0015047
C	-0.7156297	0.9334996	-1.0664996	0	0.0063333	-0.0014080	0.0145312
C	-0.4510198	0.9038397	1.3620795	0	-0.0088856	0.0055408	0.0013453
N	-0.4168098	1.5681194	2.2975791	0	0.0057425	-0.0030501	0.0032145
H	2.1174092	0.7032597	-0.9536996	0	-0.0001322	-0.0014204	-0.0029396
H	2.9838488	-0.5116998	-0.0243800	0	0.0027872	-0.0039360	0.0006765
H	2.1738592	0.8129597	0.8091597	0	0.0030025	0.0020819	0.0002336
H	0.9111197	-1.3841294	0.9469196	0	0.0035673	-0.0016654	0.0008642
H	0.7617797	-1.3911895	-0.8004297	0	-0.0020176	0.0005392	-0.0022303
H	-1.5224694	-1.5703194	1.1996895	0	-0.0034846	-0.0027651	0.0024530
H	-2.6044890	-0.4170498	0.4085098	0	-0.0026695	0.0026977	-0.0048314
H	-1.6985393	-1.5866694	-0.5624898	0	-0.0024942	-0.0006942	-0.0023128
H	-1.6801194	1.4387795	-1.0055796	0	-0.0021964	0.0016497	-0.0037405
H	0.0565100	1.6955993	-1.1657695	0	0.0013580	-0.0008468	-0.0038048
H	-0.7083197	0.3145299	-1.9663092	0	0.0028453	-0.0014338	-0.0038855
