13
Properties=species:S:1:pos:R:3:molID:I:1:forces_dft:R:3 Nmols=1 Comp=VC(1) energy_dft=-7799.058644911950 pbc="F F F"
C	1.9142393	0.2138499	0.1780799	0	-0.0057911	-0.0041227	-0.0055286
O	0.6962997	-0.3758299	0.5798498	0	0.0070493	-0.0033549	0.0070576
C	-0.3820199	-0.0940200	-0.2657499	0	-0.0011336	-0.0045061	0.0001653
C	-1.5733394	-0.9239996	0.1768800	0	0.0080296	0.0067495	0.0027575
C	-0.7130997	1.3531495	-0.2449899	0	-0.0048742	0.0025666	0.0019736
N	-0.9632696	2.4723990	-0.2309499	0	0.0026578	-0.0033525	-0.0013068
H	1.8528993	1.3075695	0.1888299	0	0.0004155	0.0046679	-0.0041858
H	2.2012292	-0.1186199	-0.8268696	0	-0.0025416	-0.0051854	-0.0024094
H	2.6698289	-0.1076700	0.8914996	0	0.0036040	0.0037808	0.0019633
H	-0.1225000	-0.3359399	-1.3069195	0	-0.0007610	-0.0008630	-0.0034421
H	-1.3143295	-1.9800392	0.1111899	0	0.0026025	-0.0049069	-0.0020060
H	-1.8304193	-0.6855997	1.2084495	0	0.0007372	0.0006725	0.0046519
H	-2.4355390	-0.7252697	-0.4592898	0	-0.0004690	0.0008392	-0.0047983
