16
Properties=species:S:1:pos:R:3:molID:I:1:forces_dft:R:3 Nmols=1 Comp=VC(1) energy_dft=-9880.472030612646 pbc="F F F"
C	-1.1593696	1.4300295	-0.2913999	0	0.0014109	-0.0007224	0.0107703
C	-0.2592099	0.3423398	0.2749999	0	-0.0039017	0.0032792	-0.0010341
C	-0.9245496	-1.0375296	0.1687099	0	0.0088501	-0.0040649	0.0035031
O	-0.4868098	-1.9604392	1.1239196	0	0.0019396	0.0068683	0.0042478
N	1.0249496	0.4132598	-0.4287798	0	-0.0039878	-0.0004222	-0.0035570
C	2.0980092	-0.3558199	-0.1825199	0	0.0006292	-0.0060128	0.0086091
O	2.1427592	-1.2863295	0.5992398	0	-0.0067285	-0.0154594	-0.0083411
H	-0.6760697	2.4085391	-0.2495099	0	0.0045126	0.0022901	-0.0000393
H	-2.0839092	1.4901294	0.2812199	0	-0.0019346	-0.0017867	-0.0005495
H	-1.4196194	1.2171095	-1.3320695	0	-0.0031081	0.0007381	-0.0050662
H	-0.0766600	0.5304398	1.3382395	0	-0.0059925	0.0019471	0.0007565
H	-1.9974392	-0.9102496	0.3335698	0	-0.0041941	0.0020353	-0.0004052
H	-0.7909797	-1.4090994	-0.8586896	0	0.0006582	0.0013375	-0.0011464
H	0.4828298	-1.9655792	1.0978295	0	-0.0022488	-0.0004117	-0.0014871
H	1.1486595	1.1563595	-1.0946896	0	0.0007040	0.0032542	0.0012181
H	2.9773988	-0.0631600	-0.7800797	0	0.0005005	0.0006940	-0.0011276
