15
Properties=species:S:1:pos:R:3:molID:I:1:forces_dft:R:3 Nmols=1 Comp=VC(1) energy_dft=-7833.288646764371 pbc="F F F"
C	-1.7497793	0.5017598	0.4731498	0	-0.0026868	0.0016116	-0.0024560
C	-0.9604396	-0.3101199	-0.5442998	0	-0.0026628	-0.0030504	-0.0021993
C	0.2914199	-0.9609496	0.0359700	0	-0.0037274	0.0044908	0.0043654
N	1.2604895	-0.0071700	0.5446198	0	-0.0022976	-0.0048831	-0.0083049
C	2.1545291	0.6121098	-0.2567999	0	0.0022389	-0.0024871	-0.0089654
O	2.2577891	0.4320098	-1.4485994	0	-0.0023399	0.0021432	0.0030251
H	-2.6494590	0.9270096	0.0262800	0	-0.0030016	0.0008044	-0.0015707
H	-2.0615592	-0.1163499	1.3199195	0	-0.0026130	-0.0026213	-0.0000207
H	-1.1575295	1.3325595	0.8632697	0	-0.0005390	0.0029528	-0.0024548
H	-0.6625897	0.3219299	-1.3843595	0	0.0008051	0.0000709	-0.0000138
H	-1.5901694	-1.1036196	-0.9569796	0	0.0007395	-0.0021506	0.0015071
H	0.7889597	-1.5529194	-0.7332297	0	-0.0024539	-0.0033746	0.0012685
H	0.0264800	-1.6340394	0.8552697	0	0.0001383	-0.0010490	0.0011982
H	1.2454595	0.2461399	1.5157094	0	-0.0009369	0.0038769	0.0076444
H	2.8064189	1.3116495	0.2975199	0	0.0021471	0.0027508	-0.0010863
