16
Properties=species:S:1:pos:R:3:molID:I:1:forces_dft:R:3 Nmols=1 Comp=VC(1) energy_dft=-9878.071106490173 pbc="F F F"
C	2.1484191	-0.0882600	-0.0513900	0	-0.0013491	-0.0115256	0.0033885
O	1.2667295	-0.3834799	1.0034196	0	-0.0059534	-0.0015802	-0.0023230
C	0.1224500	0.4316198	1.0041196	0	0.0036652	-0.0083239	0.0021072
C	-0.9257497	-0.0294900	0.0162500	0	-0.0018519	0.0100871	-0.0020363
N	-1.8180493	0.7317297	-0.4706198	0	0.0021713	0.0002798	0.0010826
O	-1.7096693	2.0410692	-0.0068400	0	-0.0007669	-0.0005217	-0.0041850
C	-0.9754896	-1.4728294	-0.3716098	0	0.0042255	0.0039113	0.0054849
H	2.9808388	-0.7870897	0.0164700	0	0.0033041	-0.0021872	0.0011965
H	1.6703194	-0.1995299	-1.0333596	0	-0.0007393	-0.0044507	-0.0047740
H	2.5326890	0.9361696	0.0287700	0	0.0024042	0.0040231	0.0013376
H	0.3795399	1.4780594	0.8126697	0	0.0009317	0.0021500	0.0068251
H	-0.3053299	0.3788598	2.0094692	0	-0.0020812	-0.0005298	0.0031846
H	-2.4146190	2.4900190	-0.4762198	0	-0.0030356	0.0001211	0.0021749
H	-1.0755396	-2.0977392	0.5185698	0	0.0019718	-0.0019717	0.0018078
H	-0.0559100	-1.7823193	-0.8702697	0	0.0014306	-0.0023464	-0.0029642
H	-1.8206193	-1.6467994	-1.0344796	0	-0.0006546	-0.0003658	-0.0043956
