11
Properties=species:S:1:pos:R:3:molID:I:1:forces_dft:R:3 Nmols=1 Comp=VC(1) energy_dft=-7765.375886692757 pbc="F F F"
C	-1.8746893	0.1147600	-0.3777598	0	0.0112245	0.0039906	-0.0012192
N	-0.4328098	0.0637300	-0.4511198	0	-0.0107916	-0.0023155	0.0029450
C	0.3465699	-0.1156899	0.6419898	0	0.0007516	-0.0025316	0.0031333
O	-0.0673100	-0.2650299	1.7704493	0	0.0109517	-0.0045188	-0.0150220
C	1.7801793	-0.1177400	0.3360499	0	0.0119917	-0.0012727	-0.0019710
C	2.9551188	-0.1197399	0.1091700	0	-0.0184903	0.0021829	0.0022557
H	-2.3198691	-0.5877698	-1.0837796	0	-0.0047489	-0.0004316	-0.0010572
H	-2.2473991	1.1192996	-0.5895497	0	-0.0013175	0.0036077	0.0028912
H	-2.1693191	-0.1618199	0.6320197	0	-0.0085914	0.0005012	0.0011535
H	0.0257600	0.1939899	-1.3350195	0	0.0035002	0.0018743	-0.0039416
H	4.0037684	-0.1239899	-0.0775300	0	0.0060861	0.0006561	-0.0010814
