15
Properties=species:S:1:pos:R:3:molID:I:1:forces_dft:R:3 Nmols=1 Comp=VC(1) energy_dft=-8398.619052220003 pbc="F F F"
C	-2.9128089	-0.1331999	0.2708899	0	0.0035416	0.0003195	0.0005679
C	-1.4617294	-0.2437399	-0.1585600	0	0.0024344	0.0042115	0.0062755
C	-0.4893398	0.3195799	0.8523297	0	-0.0037310	0.0037040	0.0117664
O	-0.8321097	0.8121797	1.8985093	0	0.0054937	0.0087485	-0.0231744
C	0.9168896	0.2311699	0.4792598	0	0.0113271	-0.0067257	-0.0015122
C	2.0699992	0.1498000	0.1553999	0	-0.0104659	0.0046166	0.0043863
C	3.4734686	0.0615400	-0.2161899	0	-0.0052373	0.0034426	0.0007202
H	-3.0858288	-0.6698298	1.2038295	0	-0.0002014	-0.0020866	0.0017801
H	-3.5704486	-0.5483698	-0.4937398	0	-0.0004084	-0.0015364	-0.0037000
H	-3.1918488	0.9071897	0.4384998	0	-0.0025568	0.0028843	-0.0037788
H	-1.2785195	0.2753099	-1.1054296	0	0.0018235	0.0001305	-0.0030564
H	-1.1710896	-1.2837395	-0.3414199	0	0.0015325	-0.0026959	0.0068428
H	3.9171784	1.0572496	-0.2591599	0	0.0030594	0.0022026	0.0021989
H	4.0244884	-0.5215198	0.5230998	0	0.0014170	-0.0018679	0.0017289
H	3.5917086	-0.4136198	-1.1905096	0	-0.0020354	-0.0038225	-0.0018851
