11
Properties=species:S:1:pos:R:3:molID:I:1:forces_dft:R:3 Nmols=1 Comp=VC(1) energy_dft=-7766.651521656139 pbc="F F F"
C	-1.3785095	0.2972099	-0.1648899	0	0.0052275	-0.0030418	-0.0081711
C	-0.4031999	-0.6989497	0.3890598	0	-0.0075913	-0.0067733	0.0105235
O	-0.7273597	-1.6689393	1.0168096	0	-0.0022250	0.0214341	-0.0154688
C	1.0930996	-0.4843098	0.1031699	0	0.0034639	0.0014584	-0.0003366
C	1.4764894	0.8863297	-0.2072999	0	0.0007715	0.0025423	-0.0009140
N	1.7590393	1.9715292	-0.4472098	0	-0.0010941	0.0038167	0.0009043
H	-2.3938090	-0.0553000	-0.0026300	0	-0.0040341	0.0015615	-0.0008940
H	-1.1962895	0.4618098	-1.2293295	0	0.0008292	0.0011406	-0.0028668
H	-1.2370095	1.2621495	0.3280199	0	0.0004758	0.0034077	0.0051333
H	1.3495395	-1.1232696	-0.7468797	0	-0.0003510	-0.0043394	-0.0006009
H	1.6580193	-0.8482497	0.9611696	0	-0.0016634	-0.0030912	0.0011056
