15
Properties=species:S:1:pos:R:3:molID:I:1:forces_dft:R:3 Nmols=1 Comp=VC(1) energy_dft=-8294.809338783129 pbc="F F F"
N	1.8724093	-0.7563697	-0.0011500	0	-0.0057755	-0.0053185	0.0104191
C	0.8127097	0.1513400	0.4044298	0	0.0010529	-0.0018526	-0.0034406
C	1.2536395	1.5668994	0.4675098	0	-0.0023643	0.0056757	0.0048054
N	1.6282894	2.6513190	0.5004898	0	-0.0035292	0.0023440	-0.0042392
C	-0.3880598	0.0352400	-0.5048498	0	0.0012166	-0.0073413	0.0118082
C	-1.7533393	0.3273498	0.0348200	0	0.0067393	0.0010640	-0.0038842
C	-1.3544095	-1.0830796	-0.2844999	0	-0.0039241	0.0009552	0.0044258
H	2.6815089	-0.6642898	0.5985498	0	0.0038549	0.0046203	0.0030600
H	2.1700591	-0.5561798	-0.9475096	0	0.0051877	0.0026278	-0.0047926
H	0.5054098	-0.1234200	1.4180494	0	-0.0019827	-0.0014351	0.0024906
H	-0.1941099	0.3292799	-1.5310094	0	-0.0008381	0.0006259	-0.0028569
H	-1.8333993	0.6093798	1.0774096	0	-0.0023152	-0.0005299	0.0022841
H	-2.4586190	0.8264497	-0.6151997	0	-0.0014120	0.0001588	-0.0016468
H	-1.7881493	-1.5560294	-1.1548295	0	-0.0016196	-0.0013249	-0.0029202
H	-1.1539196	-1.7578993	0.5377998	0	-0.0025800	-0.0018028	-0.0006441
