13
Properties=species:S:1:pos:R:3:molID:I:1:forces_dft:R:3 Nmols=1 Comp=VC(1) energy_dft=-6786.252716555793 pbc="F F F"
C	2.9038888	-0.4361198	0.0119000	0	-0.0216516	0.0037686	0.0007145
C	1.8487193	0.1274700	-0.0135000	0	0.0203392	-0.0094135	-0.0001546
C	0.5578198	0.8130597	-0.0675000	0	-0.0051307	-0.0061668	-0.0028612
N	-0.4600298	0.0960000	0.6822997	0	-0.0081746	0.0081105	0.0077568
C	-1.1163496	-0.9837796	-0.0252300	0	0.0028396	0.0011956	-0.0020479
C	-1.8214593	0.2940299	0.2271499	0	0.0079070	0.0011376	-0.0020408
H	3.8423285	-0.9371896	0.0416200	0	0.0019196	-0.0003623	-0.0024496
H	0.6613297	1.8109793	0.3660698	0	-0.0046529	0.0034651	0.0017570
H	0.2778799	0.9460696	-1.1252595	0	-0.0008255	0.0007639	-0.0045852
H	-1.3423795	-1.8622593	0.5662698	0	0.0003422	-0.0028616	0.0033477
H	-0.8002397	-1.1855495	-1.0451096	0	-0.0004422	-0.0008398	-0.0041449
H	-2.5708690	0.3669799	1.0057896	0	-0.0013517	0.0002381	0.0028362
H	-1.9806492	0.9503196	-0.6244798	0	-0.0001314	0.0024236	-0.0008397
