12
Properties=species:S:1:pos:R:3:molID:I:1:forces_dft:R:3 Nmols=1 Comp=VC(1) energy_dft=-8340.469330870223 pbc="F F F"
C	1.5933894	0.3370699	-0.7035997	0	-0.0035667	0.0015357	-0.0035401
C	0.3457599	0.7030497	0.0503700	0	0.0014835	0.0076636	0.0021770
O	-0.0304900	1.8393493	0.1842000	0	0.0017764	-0.0181797	-0.0017785
C	-0.4716198	-0.4448498	0.6289697	0	-0.0049684	0.0046239	-0.0141685
C	-1.8340693	-0.4877998	-0.0294100	0	-0.0021415	-0.0071429	-0.0061428
O	-2.3060791	-1.4773494	-0.5119398	0	0.0087382	-0.0140267	0.0085406
H	1.3442195	-0.3531499	-1.5136694	0	-0.0013066	-0.0036308	0.0004151
H	2.2842591	-0.1894599	-0.0404800	0	0.0007523	-0.0013830	0.0020751
H	2.0676492	1.2300095	-1.1035796	0	0.0005478	0.0012914	-0.0005787
H	0.0113000	-1.4155994	0.5279998	0	0.0007457	-0.0022306	-0.0027757
H	-0.6311897	-0.2199699	1.6879093	0	0.0004134	0.0025550	0.0025288
H	-2.3731291	0.4786998	-0.0406900	0	-0.0007796	0.0022797	0.0005440
