15
Properties=species:S:1:pos:R:3:molID:I:1:forces_dft:R:3 Nmols=1 Comp=VC(1) energy_dft=-7386.244818266802 pbc="F F F"
C	-0.1018700	-1.5127994	-0.0719900	0	-0.0016756	0.0038239	0.0116603
C	-0.3225599	-0.1177100	0.5150698	0	-0.0037394	0.0030189	-0.0040117
C	0.3237198	0.9854896	-0.3495999	0	0.0045395	-0.0023715	0.0027131
C	1.7747193	0.8536897	-0.4382098	0	0.0141031	-0.0019599	0.0061008
C	2.9650488	0.7366197	-0.4954598	0	-0.0190340	0.0014400	0.0018949
C	-1.7502993	0.1639799	0.6798797	0	-0.0132340	0.0046766	-0.0005505
C	-2.9201689	0.3944899	0.7926097	0	0.0189079	-0.0032681	-0.0032780
H	-0.5683098	-1.5908494	-1.0559596	0	-0.0042522	0.0049066	-0.0021699
H	0.9651896	-1.7129093	-0.1759599	0	0.0044994	-0.0032087	0.0010901
H	-0.5398698	-2.2746991	0.5725598	0	-0.0032381	-0.0028228	0.0016715
H	0.1422799	-0.0772100	1.5050094	0	0.0015412	-0.0013738	0.0007484
H	-0.1086799	0.9526696	-1.3534394	0	-0.0026173	-0.0010157	-0.0034854
H	0.0768500	1.9639292	0.0676400	0	-0.0020966	0.0022945	-0.0006699
H	4.0233784	0.6383498	-0.5516198	0	0.0066110	-0.0012740	0.0010217
H	-3.9594284	0.5969698	0.9010596	0	-0.0053145	0.0033563	0.0006514
