13
Properties=species:S:1:pos:R:3:molID:I:1:forces_dft:R:3 Nmols=1 Comp=VC(1) energy_dft=-7799.418604396755 pbc="F F F"
O	2.8142889	-1.4823394	-0.2683799	0	0.0043744	0.0045022	-0.0039911
C	1.7948893	-0.8852097	-0.5176298	0	0.0080783	-0.0040110	0.0015294
N	1.0793096	-0.1696899	0.3865398	0	-0.0048154	-0.0017675	0.0048084
C	-0.0365600	0.6551097	0.0502900	0	0.0062741	0.0034356	0.0009609
C	-1.3012295	0.4947498	0.8365597	0	0.0012653	-0.0025235	-0.0002745
C	-1.2397095	0.0221200	-0.5824198	0	0.0000128	0.0020193	0.0015331
H	1.3331495	-0.8787196	-1.5214094	0	-0.0028965	-0.0000160	-0.0028959
H	1.4901194	-0.0847300	1.3032295	0	0.0043969	0.0024238	0.0027526
H	0.2076199	1.6631093	-0.2709899	0	0.0007485	0.0028649	-0.0020529
H	-1.3025595	-0.2604899	1.6112593	0	0.0000957	-0.0007601	0.0025717
H	-1.8695893	1.3859394	1.0646196	0	-0.0013634	0.0032685	-0.0027323
H	-1.7628593	0.5862198	-1.3422295	0	-0.0018921	0.0041864	0.0009432
H	-1.2068695	-1.0460696	-0.7494297	0	-0.0011465	-0.0036032	-0.0021416
