13
Properties=species:S:1:pos:R:3:molID:I:1:forces_dft:R:3 Nmols=1 Comp=VC(1) energy_dft=-8363.244028213143 pbc="F F F"
O	2.0345092	-1.0246796	-0.0976000	0	0.0143101	0.0023910	0.0060251
C	1.3078195	0.0237500	0.4814498	0	0.0037346	-0.0023029	-0.0096225
C	-0.0306200	0.2710199	-0.2524299	0	-0.0063444	-0.0031769	0.0128000
C	-0.8578497	-0.9399396	-0.2077999	0	-0.0038946	-0.0097132	-0.0018279
C	-1.4777994	-1.9624792	-0.1578900	0	0.0033187	0.0155699	-0.0011155
C	-0.7194797	1.4331194	0.3136299	0	-0.0052703	0.0090501	0.0061001
C	-1.2413395	2.3956691	0.7948097	0	0.0091238	-0.0081976	-0.0085515
H	1.5236494	-1.8340693	-0.0074900	0	-0.0031191	0.0010375	0.0003179
H	1.0990196	-0.1554599	1.5422894	0	0.0008173	0.0050121	0.0038632
H	1.9193792	0.9221197	0.3989998	0	0.0003472	0.0038018	0.0024561
H	0.2064199	0.4798498	-1.3007195	0	0.0014501	-0.0021142	-0.0022638
H	-2.0495092	-2.8597689	-0.1205500	0	0.0021795	-0.0040101	0.0003389
H	-1.7142193	3.2508787	1.2166395	0	-0.0010245	0.0041348	-0.0023951
