18
Properties=species:S:1:pos:R:3:molID:I:1:forces_dft:R:3 Nmols=1 Comp=VC(1) energy_dft=-8903.445660855690 pbc="F F F"
C	-2.2106691	-0.3026999	-0.5927898	0	-0.0007795	0.0119097	-0.0041929
C	-1.5633594	0.8398497	0.1771899	0	-0.0015863	-0.0086511	0.0075921
C	-0.5842898	0.3707499	1.2493595	0	0.0082166	0.0033879	-0.0100517
N	0.5521598	-0.3580698	0.7201097	0	-0.0025319	0.0113975	-0.0002024
C	1.6340594	0.2772599	0.2019799	0	0.0011715	0.0013477	0.0043908
O	1.7316093	1.4886594	0.1850299	0	-0.0004921	-0.0063216	-0.0016064
C	2.7178489	-0.6157998	-0.3585599	0	-0.0044379	0.0046095	0.0085336
H	-2.9135189	0.0701700	-1.3393095	0	-0.0027088	0.0053968	-0.0043305
H	-1.4627994	-0.8989496	-1.1208295	0	0.0021336	-0.0055076	-0.0035894
H	-2.7628589	-0.9701196	0.0751000	0	-0.0015927	-0.0012178	0.0016822
H	-1.0295696	1.5055894	-0.5050398	0	-0.0034477	-0.0007536	-0.0010122
H	-2.3343091	1.4430094	0.6655697	0	-0.0001982	0.0003192	0.0029039
H	-0.1964299	1.2322495	1.7941693	0	-0.0009480	0.0022474	0.0013191
H	-1.0907996	-0.2797299	1.9673292	0	0.0001862	-0.0008371	0.0019528
H	0.5111398	-1.3586595	0.6695597	0	-0.0013236	-0.0072201	-0.0027983
H	2.7783789	-0.4520498	-1.4349894	0	-0.0001824	0.0027175	-0.0047352
H	2.5524290	-1.6765993	-0.1687299	0	-0.0028915	-0.0030183	0.0030860
H	3.6709885	-0.3148599	0.0740700	0	0.0019320	0.0018780	0.0036378
