18
Properties=species:S:1:pos:R:3:molID:I:1:forces_dft:R:3 Nmols=1 Comp=VC(1) energy_dft=-7892.288079320527 pbc="F F F"
C	-2.4422491	-0.1579699	-1.0661996	0	0.0008886	0.0047973	-0.0057742
C	-1.4276894	-0.0384000	0.0629400	0	-0.0014970	-0.0033144	-0.0022759
C	0.0077900	-0.1622200	-0.4309498	0	-0.0021370	0.0013349	0.0023426
C	1.0665296	-0.0658500	0.6755597	0	0.0042556	-0.0028663	-0.0024391
C	2.4859890	-0.2684399	0.1403300	0	-0.0012302	-0.0014909	0.0086762
C	0.9700496	1.2231495	1.3713394	0	-0.0016201	0.0008819	0.0038418
N	0.8999296	2.2386191	1.9013893	0	-0.0010705	-0.0052149	0.0010100
H	-3.4626486	-0.0604300	-0.6929197	0	-0.0038246	0.0052442	-0.0032638
H	-2.2873291	0.6210497	-1.8164593	0	0.0021086	0.0021019	0.0001677
H	-2.3635291	-1.1240696	-1.5708794	0	-0.0035880	-0.0006877	-0.0053656
H	-1.5541494	0.9217797	0.5713898	0	0.0001547	0.0003514	0.0023943
H	-1.6195194	-0.8115797	0.8144597	0	-0.0005888	-0.0023128	-0.0008834
H	0.1440699	-1.1259795	-0.9317796	0	-0.0034024	-0.0007467	-0.0042834
H	0.2108499	0.6100497	-1.1800595	0	0.0005515	0.0024749	0.0016083
H	0.8562897	-0.8344697	1.4267595	0	0.0005800	-0.0034327	0.0008881
H	2.5659690	-1.2512295	-0.3260599	0	-0.0026657	-0.0022582	-0.0020888
H	2.7251589	0.4880498	-0.6085197	0	-0.0004481	0.0007439	0.0002863
H	3.2244887	-0.2020599	0.9390496	0	0.0007981	0.0015692	0.0037910
