15
Properties=species:S:1:pos:R:3:molID:I:1:forces_dft:R:3 Nmols=1 Comp=VC(1) energy_dft=-9408.554448284931 pbc="F F F"
C	-0.4805898	-1.5363194	0.6581598	0	0.0090839	0.0022572	-0.0060343
C	-0.1789799	-0.3114399	-0.1902499	0	-0.0034662	-0.0020996	-0.0079310
O	-0.7363597	-0.5357098	-1.4693894	0	0.0004513	-0.0121432	0.0055622
C	-0.8084397	0.9501896	0.4176898	0	0.0033252	0.0091388	-0.0100281
O	-0.6309197	2.0664192	-0.4260998	0	0.0050791	-0.0054324	-0.0092688
C	1.2819495	-0.0922599	-0.2966999	0	0.0152208	0.0036979	0.0006294
C	2.4551690	0.1366600	-0.3793398	0	-0.0198624	-0.0056775	0.0026946
H	-1.5608794	-1.6650493	0.7359897	0	-0.0040551	-0.0023314	-0.0016956
H	-0.0540900	-1.4323694	1.6563594	0	0.0037153	-0.0031816	0.0039607
H	-0.0567500	-2.4228691	0.1883599	0	-0.0001471	-0.0027267	0.0002279
H	-0.7490497	0.3142399	-1.9232793	0	-0.0016691	0.0017967	-0.0019990
H	-0.4007798	1.1283596	1.4188494	0	-0.0021895	0.0039157	0.0031045
H	-1.8848693	0.7895097	0.4963298	0	-0.0052309	-0.0027239	-0.0013238
H	0.3026099	2.2975191	-0.4251499	0	0.0008673	0.0015923	-0.0012766
H	3.5019886	0.3131199	-0.4615098	0	0.0054048	0.0039756	-0.0010692
