15
Properties=species:S:1:pos:R:3:molID:I:1:forces_dft:R:3 Nmols=1 Comp=VC(1) energy_dft=-8294.451417084096 pbc="F F F"
C	-1.7906093	-0.9452796	0.2021799	0	0.0019683	0.0087037	-0.0004967
C	-0.7315397	-0.0132900	-0.3105399	0	0.0025998	-0.0019470	0.0057500
C	-0.5436698	1.3584695	0.2177499	0	0.0088089	-0.0025053	0.0073411
N	0.3744798	0.2915299	0.5802498	0	-0.0008555	-0.0082657	-0.0035755
C	1.6865393	0.3653099	-0.0264000	0	0.0009424	0.0016594	0.0047300
C	2.2697891	-0.9743496	-0.1572599	0	0.0026810	0.0030280	0.0011052
N	2.7200389	-2.0212192	-0.2807799	0	-0.0064351	-0.0018816	0.0010034
H	-1.9889092	-0.7506197	1.2565295	0	0.0019046	0.0000100	0.0035196
H	-1.4690094	-1.9832792	0.1018500	0	0.0023689	-0.0031323	-0.0027319
H	-2.7198289	-0.8187897	-0.3568799	0	-0.0029408	-0.0006661	-0.0036123
H	-0.4670098	-0.1436300	-1.3590795	0	0.0000100	0.0001740	-0.0043918
H	-0.1904799	2.1222892	-0.4696598	0	0.0011861	0.0037206	-0.0027509
H	-1.1709995	1.7217893	1.0232896	0	0.0012749	0.0007392	0.0020393
H	1.6786594	0.8236197	-1.0273296	0	0.0035373	0.0053879	-0.0009090
H	2.3425491	0.9674596	0.6060798	0	0.0031586	-0.0013059	0.0032222
