12
Properties=species:S:1:pos:R:3:molID:I:1:forces_dft:R:3 Nmols=1 Comp=VC(1) energy_dft=-8236.115559791460 pbc="F F F"
C	1.6242994	-0.5342098	-0.1007500	0	-0.0079270	0.0007775	0.0077007
N	0.5093798	0.3233099	0.1960099	0	0.0097538	-0.0007128	-0.0111510
C	-0.7653497	0.0200800	-0.1296099	0	-0.0016325	-0.0022383	-0.0033006
N	-1.2422295	-1.0006396	-0.7292497	0	0.0009730	-0.0047966	0.0005678
C	-1.7679593	1.0630196	0.2914499	0	0.0050305	0.0030061	0.0065971
O	-1.4596294	2.0728592	0.8634796	0	0.0000865	-0.0101950	-0.0040115
H	1.5132894	-1.5142794	0.3742699	0	0.0050451	-0.0017922	0.0036179
H	2.5364490	-0.0776900	0.2774399	0	0.0025722	0.0017145	0.0024504
H	1.7398493	-0.6849297	-1.1788695	0	0.0044924	-0.0053372	-0.0037152
H	0.6450497	1.1957595	0.6779697	0	0.0016005	0.0039299	0.0048809
H	-0.5254898	-1.6732094	-0.9903696	0	-0.0020867	-0.0008949	0.0033425
H	-2.8076589	0.8099497	0.0246300	0	-0.0034983	0.0014753	-0.0014174
