16
Properties=species:S:1:pos:R:3:molID:I:1:forces_dft:R:3 Nmols=1 Comp=VC(1) energy_dft=-9881.149447199814 pbc="F F F"
C	-2.6644089	0.0890700	-0.1424700	0	0.0063610	0.0104344	-0.0034940
C	-1.2672095	0.6123498	-0.4485398	0	-0.0083579	-0.0119767	0.0005393
C	-0.1974299	-0.3119999	0.0884200	0	0.0091695	0.0113562	-0.0036874
O	1.0746496	0.2500899	-0.2451799	0	-0.0085797	0.0006410	-0.0065787
C	2.1463892	-0.4561198	0.1577899	0	0.0001273	-0.0105959	0.0077775
O	2.0929192	-1.5008194	0.7570497	0	-0.0033430	0.0171213	-0.0040646
N	3.2914087	0.1867099	-0.1893699	0	-0.0012550	-0.0000499	-0.0013391
H	-2.8244689	-0.0104100	0.9336696	0	-0.0036153	0.0028682	0.0040662
H	-3.4282486	0.7643597	-0.5294698	0	-0.0040103	0.0010412	-0.0020114
H	-2.8287389	-0.8922896	-0.5935497	0	-0.0005378	-0.0039750	0.0017168
H	-1.1323496	0.7219697	-1.5279694	0	0.0016408	-0.0036042	-0.0047962
H	-1.1312796	1.6050894	-0.0113600	0	-0.0014992	0.0036314	-0.0038342
H	-0.2684399	-0.4203598	1.1736596	0	0.0011140	0.0001374	0.0055780
H	-0.2738099	-1.3108495	-0.3485798	0	0.0036008	-0.0044590	0.0012726
H	4.1547883	-0.3041999	-0.0597000	0	0.0036683	-0.0032657	-0.0007761
H	3.2562187	0.9774196	-0.8035897	0	-0.0017720	0.0019059	-0.0016932
