14
Properties=species:S:1:pos:R:3:molID:I:1:forces_dft:R:3 Nmols=1 Comp=VC(1) energy_dft=-8732.026880625428 pbc="F F F"
C	-2.1692191	0.3632098	-0.2912499	0	0.0045997	-0.0047361	0.0028700
C	-0.9240696	-0.4810298	-0.1035499	0	0.0030722	0.0010682	-0.0017327
N	0.2646199	0.3456498	-0.1740499	0	-0.0010226	-0.0051332	-0.0086459
C	1.5008394	-0.2023199	-0.1197600	0	-0.0002259	-0.0056858	-0.0010800
N	1.7012493	-1.4577994	-0.0648600	0	-0.0106499	0.0089382	-0.0006524
C	2.5848790	0.7785697	-0.1475399	0	0.0078202	0.0002130	0.0003947
N	3.4564286	1.5242994	-0.1638499	0	0.0088968	-0.0103303	-0.0017194
H	-2.1595592	0.8704497	-1.2579595	0	-0.0010342	0.0009673	-0.0003402
H	-2.2630291	1.1175695	0.4938198	0	-0.0029907	0.0010693	0.0022561
H	-3.0583688	-0.2656299	-0.2506799	0	-0.0024397	-0.0020699	0.0038029
H	-0.8506897	-1.2493295	-0.8765796	0	0.0051732	-0.0047245	-0.0034186
H	-0.9488896	-1.0091996	0.8551297	0	-0.0000745	-0.0034271	0.0010288
H	0.1760399	1.3422295	-0.0924400	0	-0.0002589	0.0078171	0.0023065
H	2.6897890	-1.6766893	-0.0585400	0	0.0073206	-0.0015424	-0.0000495
