15
Properties=species:S:1:pos:R:3:molID:I:1:forces_dft:R:3 Nmols=1 Comp=VC(1) energy_dft=-8294.849342105423 pbc="F F F"
C	-0.9543296	1.1359796	-0.1139200	0	0.0071591	-0.0017777	-0.0031842
C	-0.2007899	-0.1689399	-0.1153800	0	-0.0033860	-0.0013374	-0.0034052
C	1.2154395	-0.0976600	-0.6626797	0	-0.0003149	0.0018651	0.0096970
C	2.0851292	0.7383597	0.1627599	0	-0.0014126	-0.0086224	-0.0075467
N	2.7489589	1.4003895	0.8237097	0	0.0000312	-0.0006218	0.0011805
C	-0.5107198	-1.1946295	0.8995097	0	-0.0049654	-0.0028475	0.0022062
N	-0.8871896	-1.3930595	-0.5024398	0	0.0125286	0.0041143	0.0054732
H	-0.4216798	1.8922993	0.4658298	0	0.0031954	-0.0000395	-0.0010818
H	-1.0743796	1.5143494	-1.1324596	0	0.0000341	-0.0015026	-0.0028401
H	-1.9459092	1.0130796	0.3248699	0	-0.0024869	0.0001387	0.0030673
H	1.2064695	0.3071599	-1.6780393	0	-0.0005889	0.0025621	-0.0028711
H	1.6362194	-1.1023196	-0.7170797	0	0.0005572	-0.0031995	0.0035527
H	-1.2883395	-0.9682196	1.6203393	0	-0.0012104	0.0028041	0.0021826
H	0.2671799	-1.8563993	1.2628595	0	0.0040748	-0.0010706	0.0002953
H	-1.8760693	-1.2204095	-0.6378897	0	-0.0090071	0.0032804	-0.0006098
