16
Properties=species:S:1:pos:R:3:molID:I:1:forces_dft:R:3 Nmols=1 Comp=VC(1) energy_dft=-6384.196910483705 pbc="F F F"
C	2.0122792	0.3334699	0.1769199	0	-0.0062868	0.0030184	-0.0065673
C	0.7825497	-0.4886998	0.5323998	0	-0.0009395	0.0085719	0.0005514
C	-0.4053198	-0.2704299	-0.4159898	0	-0.0001182	-0.0031749	-0.0014231
C	-1.5667894	-1.2131095	-0.0901900	0	0.0082275	0.0028869	-0.0099935
C	-0.8552497	1.1247396	-0.3925999	0	-0.0003059	0.0174532	0.0006842
C	-1.2358395	2.2602391	-0.3533698	0	0.0047743	-0.0175378	-0.0026719
H	2.3654591	0.0973199	-0.8300097	0	0.0010370	0.0011021	-0.0019169
H	1.7938893	1.4023594	0.2118199	0	0.0009550	0.0058892	-0.0025882
H	2.8291289	0.1337500	0.8722196	0	0.0002946	0.0031455	0.0028257
H	1.0301696	-1.5544294	0.5145598	0	-0.0017054	-0.0041809	-0.0014879
H	0.4603098	-0.2589699	1.5525794	0	-0.0028099	0.0027352	0.0026501
H	-0.0654800	-0.4825798	-1.4366095	0	0.0013043	-0.0018653	-0.0026626
H	-1.9293592	-1.0375596	0.9244396	0	-0.0026769	0.0003623	0.0033507
H	-2.3992790	-1.0619296	-0.7776297	0	-0.0009434	0.0025818	-0.0019166
H	-1.2415395	-2.2527191	-0.1639799	0	0.0037605	-0.0054290	-0.0064519
H	-1.5749194	3.2685487	-0.3245899	0	-0.0045919	0.0044064	0.0013488
