12
Properties=species:S:1:pos:R:3:molID:I:1:forces_dft:R:3 Nmols=1 Comp=VC(1) energy_dft=-9351.044633282561 pbc="F F F"
O	-1.2949295	1.0821296	0.8644996	0	0.0107673	-0.0067812	0.0015132
C	-1.2135995	-0.2246499	0.3645299	0	0.0043427	0.0036664	0.0054381
C	0.1744999	-0.8443996	0.4385898	0	-0.0038293	0.0070041	-0.0063454
O	0.9719096	-0.6788497	-0.7566997	0	0.0005000	-0.0045248	0.0078156
C	1.3937094	0.5323298	-1.0720596	0	-0.0003129	0.0101337	0.0029954
O	1.1248595	1.5546294	-0.5004198	0	0.0045061	-0.0066197	-0.0044866
H	-0.5688198	1.5880394	0.4789798	0	0.0014428	-0.0012361	0.0015282
H	-1.5751994	-0.2952999	-0.6714197	0	-0.0018762	-0.0078035	-0.0025141
H	-1.8808293	-0.8312797	0.9811396	0	-0.0030483	0.0008405	0.0012006
H	0.1043099	-1.9261392	0.5375598	0	-0.0044425	-0.0058551	0.0017181
H	0.7221597	-0.4371898	1.2912395	0	0.0006944	-0.0062769	0.0036537
H	2.0419192	0.4806798	-1.9559292	0	0.0005660	-0.0025817	-0.0036492
