13
Properties=species:S:1:pos:R:3:molID:I:1:forces_dft:R:3 Nmols=1 Comp=VC(1) energy_dft=-7799.612245071374 pbc="F F F"
C	-1.0246696	-0.8816696	-0.1679299	0	0.0054255	-0.0049982	0.0003601
C	-0.2824999	0.4348998	-0.3104699	0	-0.0034218	0.0078515	0.0077802
O	-1.0466096	1.5295394	0.1608300	0	0.0099810	-0.0036736	0.0031627
C	1.0005796	0.4796498	0.5213698	0	0.0011013	-0.0006431	-0.0162764
C	1.9730192	-0.5211298	0.0973100	0	0.0044655	0.0005325	0.0002862
N	2.7229289	-1.3161595	-0.2508699	0	-0.0083384	-0.0059314	0.0086000
H	-1.9408793	-0.8713297	-0.7625597	0	-0.0032544	0.0002603	-0.0005746
H	-0.4127499	-1.7158993	-0.5150098	0	0.0019270	-0.0017987	-0.0029767
H	-1.2944495	-1.0533596	0.8762796	0	0.0019656	0.0021375	0.0042184
H	-0.0134800	0.5907098	-1.3636494	0	0.0012371	0.0007034	-0.0035347
H	-1.8900693	1.5373794	-0.2952199	0	-0.0029842	-0.0002618	-0.0039281
H	0.7576097	0.3177399	1.5741394	0	0.0007008	0.0002201	0.0037503
H	1.4512894	1.4696294	0.4357899	0	0.0008003	0.0016479	-0.0008186
