11
Properties=species:S:1:pos:R:3:molID:I:1:forces_dft:R:3 Nmols=1 Comp=VC(1) energy_dft=-8777.731459003238 pbc="F F F"
N	-1.7898393	-0.3890698	-0.0874999	0	-0.0085844	0.0057740	-0.0056910
C	-0.7449097	0.4724898	-0.1092300	0	0.0096938	0.0086097	-0.0015061
O	-0.8364997	1.6102694	-0.5156498	0	0.0008843	-0.0052514	0.0083658
C	0.5757898	-0.0763100	0.4022398	0	0.0020259	-0.0012460	-0.0002481
C	1.6561693	0.0781500	-0.6460998	0	0.0059999	-0.0107421	0.0015108
O	2.4602890	-0.7764197	-0.8900496	0	-0.0090281	0.0067642	-0.0060986
H	-1.6966993	-1.3364795	0.2244699	0	-0.0011847	-0.0071717	0.0054340
H	-2.6783389	-0.0686000	-0.4301398	0	-0.0041954	0.0006806	-0.0009407
H	0.5369198	-1.1147796	0.7296097	0	-0.0020635	-0.0032232	0.0019338
H	0.8613697	0.5518498	1.2517495	0	0.0006601	0.0011843	-0.0001988
H	1.6557693	1.0488896	-1.1752895	0	-0.0005159	0.0027575	-0.0028100
