13
Properties=species:S:1:pos:R:3:molID:I:1:forces_dft:R:3 Nmols=1 Comp=VC(1) energy_dft=-9375.871419976247 pbc="F F F"
C	-1.0512796	-0.9804196	0.0833800	0	-0.0040392	0.0033862	0.0176805
C	-0.0299500	0.1299399	0.2716099	0	-0.0003689	-0.0038958	-0.0043377
O	0.9979996	0.0344200	-0.7390197	0	-0.0115573	0.0168981	0.0079672
C	2.0212892	-0.7758597	-0.4683498	0	0.0073742	-0.0109314	0.0110438
O	2.1631192	-1.4271295	0.5246998	0	-0.0000677	0.0002721	-0.0011351
C	-0.6249997	1.4599694	0.1564000	0	-0.0088889	0.0130777	-0.0020374
C	-1.1441296	2.5349190	0.0855200	0	0.0049030	-0.0169268	-0.0028309
H	-1.5029694	-0.9125196	-0.9062596	0	-0.0037488	-0.0027161	-0.0039141
H	-1.8368893	-0.8861196	0.8329997	0	-0.0017879	0.0022902	-0.0010115
H	-0.5685298	-1.9503092	0.1991299	0	0.0015298	-0.0026203	0.0027270
H	0.4501298	0.0321600	1.2474895	0	-0.0018006	0.0041459	0.0009821
H	2.7272689	-0.7533297	-1.3091595	0	0.0014528	0.0011935	-0.0026123
H	-1.6010594	3.4942886	0.0215300	0	-0.0027380	0.0019652	0.0045195
