11
Properties=species:S:1:pos:R:3:molID:I:1:forces_dft:R:3 Nmols=1 Comp=VC(1) energy_dft=-8777.435600826573 pbc="F F F"
C	-1.9387592	0.1393299	-0.2256699	0	0.0044826	0.0037896	-0.0031766
C	-0.5699198	-0.4613598	-0.1660099	0	0.0038080	-0.0076302	-0.0029569
O	-0.2700499	-1.5737194	-0.4842398	0	-0.0035652	-0.0120564	0.0080913
O	0.3229299	0.4534098	0.3184799	0	0.0026258	-0.0011885	-0.0029355
C	1.6308094	0.0743099	0.4570098	0	0.0093917	0.0067285	0.0012721
N	2.4409990	0.9208896	0.8927196	0	-0.0198236	0.0040214	-0.0020648
H	-2.2514791	0.4254398	0.7793297	0	-0.0018503	0.0006496	0.0038290
H	-1.9173192	1.0460196	-0.8305397	0	0.0008280	0.0031596	0.0011275
H	-2.6349190	-0.5815598	-0.6441498	0	-0.0007392	-0.0026863	-0.0051711
H	1.8187293	-0.9568096	0.1628799	0	-0.0051349	-0.0056615	-0.0067025
H	3.3689986	0.5140398	0.9488496	0	0.0046460	-0.0056234	-0.0010611
