12
Properties=species:S:1:pos:R:3:molID:I:1:forces_dft:R:3 Nmols=1 Comp=VC(1) energy_dft=-8235.883518359802 pbc="F F F"
N	-1.4181994	-0.4564498	0.6888597	0	0.0052264	-0.0166195	0.0003749
C	-0.5923198	-0.0159500	-0.4243498	0	-0.0054826	0.0006634	0.0079878
C	0.7983997	0.3290899	0.1302399	0	0.0011358	0.0055340	-0.0050375
O	1.3000995	-0.7274497	0.8975997	0	-0.0043923	-0.0020268	0.0079562
C	1.7244493	0.6172897	-0.9748796	0	-0.0014327	0.0047225	0.0012506
N	2.4078391	0.8692396	-1.8600093	0	0.0021576	-0.0037866	0.0015751
H	-1.8569792	0.3172699	1.1681095	0	0.0013866	0.0048439	0.0001325
H	-2.1413092	-1.0943396	0.3940399	0	-0.0031579	0.0011329	-0.0013645
H	-0.4788798	-0.8440296	-1.1255995	0	0.0043833	-0.0045347	-0.0020001
H	-0.9918596	0.8417097	-0.9758396	0	0.0027139	0.0014713	-0.0037539
H	0.7267397	1.2484395	0.7307097	0	0.0032078	0.0018297	-0.0002555
H	0.5220198	-1.0848296	1.3511195	0	-0.0052447	-0.0002021	0.0021884
