11
Properties=species:S:1:pos:R:3:molID:I:1:forces_dft:R:3 Nmols=1 Comp=VC(1) energy_dft=-7765.310411837775 pbc="F F F"
O	2.3842090	-0.5593498	-0.0375300	0	0.0001899	0.0189972	-0.0011494
C	1.7945193	0.4960998	-0.0166400	0	0.0071677	-0.0119640	0.0004535
N	0.4494098	0.6112398	-0.0084200	0	-0.0019829	-0.0137485	0.0026208
C	-0.3967199	-0.5682798	-0.0253900	0	0.0098708	0.0098622	-0.0000080
C	-1.8059193	-0.1920599	-0.0033500	0	-0.0095013	0.0039166	0.0006805
C	-2.9585489	0.1274400	0.0144900	0	0.0123672	-0.0035265	-0.0017362
H	2.3087891	1.4729194	-0.0023000	0	0.0021298	0.0025853	-0.0012182
H	0.0205800	1.5189594	0.0085100	0	-0.0033235	0.0044152	-0.0006547
H	-0.1841900	-1.1647795	-0.9167396	0	-0.0022678	-0.0040318	-0.0026645
H	-0.1661999	-1.2020195	0.8351397	0	-0.0029699	-0.0057947	0.0003137
H	-3.9868284	0.4030498	0.0305500	0	-0.0053883	0.0024684	0.0013006
