16
Properties=species:S:1:pos:R:3:molID:I:1:forces_dft:R:3 Nmols=1 Comp=VC(1) energy_dft=-9880.914340629282 pbc="F F F"
C	-2.0391992	-0.0777100	-0.8332797	0	0.0041486	0.0018523	-0.0013455
C	-0.5612198	0.2460899	-0.7030297	0	-0.0019198	-0.0002972	0.0025685
O	-0.3769499	1.4845894	-0.0125000	0	0.0010757	0.0077755	-0.0040413
C	0.1806999	-0.8278097	0.0797899	0	0.0054004	0.0044820	-0.0076514
C	1.7013594	-0.7694497	0.0510200	0	0.0006261	-0.0066475	-0.0018914
O	2.3704091	-1.7793693	-0.0323100	0	-0.0060447	0.0092532	-0.0057392
N	2.2461691	0.4660298	0.1454600	0	0.0027304	0.0007977	-0.0016492
H	-2.4943990	-0.1796199	0.1538700	0	-0.0016930	0.0008208	0.0040897
H	-2.1840092	-1.0084896	-1.3840695	0	0.0007340	-0.0021680	-0.0033491
H	-2.5652190	0.7134797	-1.3735194	0	-0.0012838	0.0009132	-0.0029034
H	-0.1166600	0.3257799	-1.7043493	0	0.0017608	-0.0045760	-0.0000811
H	-0.8362597	2.1767592	-0.4914698	0	0.0002706	0.0004508	0.0010750
H	-0.1407200	-0.7784697	1.1253496	0	-0.0016331	0.0000868	0.0036714
H	-0.0891000	-1.8130993	-0.2981199	0	0.0008073	-0.0024887	-0.0021135
H	3.2468387	0.5436298	0.1639599	0	0.0074686	-0.0021273	0.0002819
H	1.6582694	1.2776595	0.2356599	0	-0.0048289	0.0038912	-0.0017374
