15
Properties=species:S:1:pos:R:3:molID:I:1:forces_dft:R:3 Nmols=1 Comp=VC(1) energy_dft=-8397.296898486753 pbc="F F F"
C	-1.5456894	-0.9521196	-0.2016899	0	0.0025144	-0.0000057	0.0115659
C	-0.6119398	-0.4138499	0.8746097	0	0.0012342	0.0004544	-0.0016539
C	0.5205298	0.4134098	0.3089199	0	-0.0015098	0.0043994	0.0016896
C	0.3722299	1.8637693	0.1484799	0	-0.0019313	-0.0001729	-0.0011169
O	1.1321795	1.3256795	1.2137495	0	0.0102522	-0.0092601	-0.0055727
C	1.4406095	-0.2929899	-0.5650898	0	0.0071466	-0.0084800	-0.0097709
C	2.1771591	-0.9083496	-1.2804195	0	-0.0113641	0.0081653	0.0125445
H	-2.3525891	-1.5342694	0.2447699	0	-0.0030882	-0.0004801	0.0047976
H	-1.0104096	-1.5974894	-0.9001097	0	0.0024061	-0.0012613	-0.0028799
H	-1.9956992	-0.1379399	-0.7741597	0	0.0025430	0.0032249	-0.0000583
H	-1.1573795	0.2185599	1.5785394	0	0.0014703	0.0017813	0.0009953
H	-0.1810199	-1.2372095	1.4501794	0	-0.0025762	-0.0016123	0.0013313
H	0.9425096	2.3785591	-0.6183498	0	0.0024136	-0.0012250	0.0012724
H	-0.5704898	2.3239491	0.4338598	0	-0.0030441	-0.0006122	0.0031980
H	2.8399989	-1.4497094	-1.9132992	0	0.0021228	-0.0001285	-0.0009903
