16
Properties=species:S:1:pos:R:3:molID:I:1:forces_dft:R:3 Nmols=1 Comp=VC(1) energy_dft=-8869.505521207291 pbc="F F F"
C	2.0920692	-0.0265200	0.0358400	0	-0.0058062	0.0133013	0.0035067
C	0.6695397	0.1364899	0.5544998	0	-0.0021225	0.0024329	-0.0045736
C	-0.3891698	-0.2389199	-0.4747198	0	-0.0011882	-0.0086750	0.0012761
O	-0.3233699	-1.6026994	-0.8481197	0	0.0018623	0.0010856	0.0001560
C	-1.8121293	-0.0591800	0.0566800	0	0.0020753	0.0000513	-0.0016181
C	-2.1145692	1.3288595	0.3865598	0	-0.0024925	0.0003109	0.0035883
N	-2.3346791	2.4262790	0.6374397	0	0.0012308	0.0029179	-0.0015178
H	2.2528691	0.5609298	-0.8718196	0	-0.0021815	0.0019513	-0.0012890
H	2.8176989	0.3081299	0.7775297	0	0.0023703	-0.0018859	0.0040119
H	2.3281191	-1.0706196	-0.1859399	0	0.0000916	-0.0046425	0.0010011
H	0.5058898	1.1756695	0.8530997	0	0.0014556	0.0037417	-0.0003021
H	0.5204398	-0.4826598	1.4446795	0	-0.0005590	-0.0031573	0.0030024
H	-0.2689399	0.3990998	-1.3619595	0	-0.0011124	0.0013125	-0.0027869
H	0.5278198	-1.7727793	-1.2550995	0	0.0036317	0.0000847	-0.0022091
H	-1.9490292	-0.6771697	0.9470596	0	0.0007214	-0.0026860	0.0004478
H	-2.5225790	-0.4049098	-0.6957197	0	-0.0015682	0.0013870	-0.0052615
