10
Properties=species:S:1:pos:R:3:molID:I:1:forces_dft:R:3 Nmols=1 Comp=VC(1) energy_dft=-6729.000470524983 pbc="F F F"
C	-1.1869895	0.6077398	0.2424899	0	0.0043406	-0.0064476	-0.0086061
O	-0.4430798	0.3090399	-0.9206297	0	-0.0016450	0.0073754	-0.0000037
C	0.5578998	-0.6368698	-0.7145697	0	-0.0081037	0.0066728	0.0008971
C	1.6323693	-0.1530800	0.1780000	0	0.0009696	-0.0005436	0.0014468
N	2.4564291	0.2248699	0.8800797	0	0.0082199	-0.0037024	-0.0050864
H	-1.9599592	1.3143695	-0.0510300	0	-0.0037488	0.0017767	0.0019585
H	-0.5569598	1.0636596	1.0139496	0	-0.0009152	0.0037027	0.0038277
H	-1.6571394	-0.2948799	0.6511498	0	-0.0004380	-0.0019174	0.0007209
H	0.9962796	-0.8675397	-1.6858793	0	0.0011242	-0.0041011	-0.0031632
H	0.1611500	-1.5673094	-0.2865299	0	0.0024089	-0.0018730	0.0001195
