17
Properties=species:S:1:pos:R:3:molID:I:1:forces_dft:R:3 Nmols=1 Comp=VC(1) energy_dft=-7420.341529261353 pbc="F F F"
C	2.0276292	0.4079399	-0.1147500	0	-0.0017786	-0.0089899	0.0048250
C	0.9626196	-0.4018698	0.6116298	0	-0.0053242	0.0037326	-0.0019017
C	-0.4440398	-0.1268200	0.1101199	0	0.0047649	-0.0061615	0.0022807
C	-0.9190396	-0.8550697	-1.1241595	0	0.0015801	0.0035413	0.0063881
C	-1.4752994	-1.2223495	0.2142699	0	0.0060415	0.0090937	0.0018442
C	-0.9094696	1.2296095	0.2901799	0	-0.0137914	0.0134246	-0.0019096
C	-1.2786695	2.3590190	0.4493898	0	0.0084268	-0.0174146	-0.0005190
H	2.0162192	0.1967099	-1.1865096	0	0.0007075	-0.0032506	-0.0059154
H	3.0237088	0.1740199	0.2645999	0	0.0038219	0.0002938	0.0005201
H	1.8590493	1.4785194	0.0154600	0	-0.0042752	0.0044787	-0.0000275
H	1.1605896	-1.4711194	0.4906098	0	-0.0017338	-0.0042234	-0.0038199
H	1.0011596	-0.1957899	1.6851393	0	0.0000438	-0.0028971	0.0036879
H	-1.5553194	-0.3147099	-1.8110893	0	-0.0020750	-0.0027336	-0.0019769
H	-0.2148499	-1.5328894	-1.5905094	0	-0.0022504	0.0000340	-0.0035779
H	-1.1520796	-2.1518092	0.6656797	0	-0.0019447	-0.0023597	0.0015273
H	-2.4923290	-0.9339796	0.4414698	0	-0.0043874	0.0039309	-0.0022796
H	-1.6098894	3.3605687	0.5884697	0	0.0012854	0.0047925	0.0014211
