13
Properties=species:S:1:pos:R:3:molID:I:1:forces_dft:R:3 Nmols=1 Comp=VC(1) energy_dft=-9375.545823436922 pbc="F F F"
C	-1.1265896	0.9847196	0.2079899	0	-0.0001148	-0.0016716	0.0066702
C	-0.7129297	-0.4758598	0.3464899	0	-0.0005183	-0.0034378	0.0005696
O	-1.7403193	-1.3240395	-0.0714800	0	-0.0143893	0.0044627	-0.0006835
C	0.5493698	-0.7758297	-0.4449698	0	0.0028414	-0.0012353	-0.0039252
O	0.5566998	-1.6158794	-1.3116195	0	-0.0028299	0.0065347	-0.0018995
C	1.7396093	-0.0171500	-0.0997300	0	0.0083279	0.0065845	0.0065445
C	2.7109390	0.6115898	0.2084399	0	-0.0114638	-0.0081220	-0.0072974
H	-2.0412392	1.1451796	0.7773397	0	-0.0029510	-0.0026373	0.0019100
H	-1.3274795	1.2207195	-0.8382697	0	-0.0006377	0.0013321	-0.0047759
H	-0.3548398	1.6562994	0.5859898	0	0.0044125	-0.0004228	0.0010790
H	-0.4656498	-0.6784497	1.3998994	0	-0.0024348	0.0003135	0.0027400
H	-1.3705894	-1.8956293	-0.7579897	0	0.0023317	0.0007270	-0.0005036
H	3.5830286	1.1643295	0.4717598	0	0.0033262	-0.0009184	0.0019710
