10
Properties=species:S:1:pos:R:3:molID:I:1:forces_dft:R:3 Nmols=1 Comp=VC(1) energy_dft=-8202.585017383315 pbc="F F F"
N	1.7939793	0.4428998	-0.2844499	0	-0.0135904	-0.0044469	-0.0087468
C	1.2791895	-0.4980398	0.3700699	0	0.0092105	0.0028091	-0.0020140
O	-0.0469800	-0.6696597	0.4692798	0	-0.0082521	-0.0007144	0.0024037
C	-0.8249197	0.2916899	-0.2253599	0	0.0009173	0.0002089	0.0035235
C	-2.2352491	-0.0238800	-0.0035900	0	-0.0042259	-0.0054697	0.0011688
N	-3.3503487	-0.2391999	0.1467399	0	0.0040769	0.0028225	-0.0042305
H	2.8055089	0.4089498	-0.2430799	0	0.0096952	0.0011287	0.0005483
H	1.7904193	-1.2813195	0.9297997	0	-0.0002892	0.0007071	0.0052494
H	-0.6034797	0.2689999	-1.2947795	0	-0.0038886	0.0024563	-0.0056379
H	-0.6081298	1.2995495	0.1353599	0	-0.0008395	0.0044661	-0.0005568
