18
Properties=species:S:1:pos:R:3:molID:I:1:forces_dft:R:3 Nmols=1 Comp=VC(1) energy_dft=-7892.312532651336 pbc="F F F"
C	1.8495993	-0.6329398	0.0071900	0	-0.0019307	0.0067435	0.0048053
C	0.5713498	0.0769700	0.4411598	0	0.0046408	-0.0039621	-0.0015337
C	0.5598598	1.5271694	-0.0307000	0	-0.0016337	0.0018755	0.0050146
C	-0.6787997	-0.7098497	-0.0132400	0	0.0014458	0.0020721	-0.0043845
C	-1.9961792	-0.1609499	0.5411098	0	-0.0000363	-0.0019193	-0.0017841
C	-0.7426097	-0.7861897	-1.4781094	0	-0.0003168	0.0037686	-0.0047776
N	-0.7930897	-0.8289997	-2.6238690	0	0.0002282	0.0021931	0.0063714
H	1.8726093	-1.6668993	0.3590299	0	-0.0001069	-0.0042862	0.0009047
H	2.7275589	-0.1241199	0.4082998	0	0.0026993	0.0007389	0.0006489
H	1.9399392	-0.6464698	-1.0818796	0	0.0008616	-0.0001724	-0.0039966
H	0.5306198	0.0699800	1.5362394	0	0.0018089	-0.0028793	0.0028866
H	1.4540394	2.0440992	0.3211498	0	0.0010954	0.0006367	-0.0006754
H	-0.3053299	2.0754392	0.3443799	0	-0.0008373	-0.0001612	-0.0002099
H	0.5506098	1.5825994	-1.1223996	0	-0.0026388	-0.0033908	-0.0055339
H	-0.5607498	-1.7402193	0.3373199	0	0.0002591	-0.0024386	-0.0002869
H	-2.8266189	-0.8191497	0.2863399	0	0.0009468	-0.0057278	-0.0004199
H	-1.9352792	-0.0881000	1.6282194	0	0.0000471	-0.0000556	0.0050441
H	-2.2175291	0.8276297	0.1397599	0	-0.0081799	0.0011630	-0.0006257
