15
Properties=species:S:1:pos:R:3:molID:I:1:forces_dft:R:3 Nmols=1 Comp=VC(1) energy_dft=-9305.922750828289 pbc="F F F"
C	0.6160198	1.4275994	-0.2018599	0	-0.0018320	-0.0049793	0.0045750
C	0.6219198	-0.0416100	0.2239799	0	-0.0008339	0.0004486	0.0058819
O	0.5641198	-0.1586400	1.6234494	0	-0.0070533	-0.0001756	0.0026990
C	-0.5548598	-0.8285297	-0.3984299	0	-0.0007276	0.0077839	-0.0003655
N	-1.7878093	-0.4173298	0.2535899	0	0.0099629	-0.0114037	-0.0004976
C	1.8789693	-0.6711197	-0.2307399	0	-0.0024014	0.0006257	-0.0044324
N	2.8368689	-1.1549595	-0.6344298	0	0.0038416	-0.0009429	0.0048204
H	1.4431695	1.9504692	0.2759099	0	0.0033243	0.0014560	-0.0035729
H	-0.3154299	1.8924392	0.1258899	0	-0.0015074	0.0057998	-0.0035592
H	0.7100897	1.5294294	-1.2843595	0	-0.0021231	-0.0007976	-0.0056199
H	-0.3830899	-0.1353999	1.8276893	0	-0.0003674	0.0039764	-0.0016344
H	-0.3901798	-1.8870093	-0.1942899	0	-0.0001891	-0.0040152	-0.0000310
H	-0.5534598	-0.6925697	-1.4848294	0	-0.0005559	0.0011071	-0.0044539
H	-2.4530390	-1.1725896	0.3100099	0	-0.0032264	-0.0032246	-0.0025620
H	-2.2332891	0.3598199	-0.2115899	0	-0.0006268	0.0035791	-0.0045936
