16
Properties=species:S:1:pos:R:3:molID:I:1:forces_dft:R:3 Nmols=1 Comp=VC(1) energy_dft=-9880.124476083838 pbc="F F F"
C	-2.3853090	0.4554898	-0.1721300	0	0.0078288	-0.0024856	0.0045754
N	-1.8338493	-0.6689297	0.5656198	0	0.0015246	0.0108438	0.0053212
C	-0.5376698	-0.4097498	1.1302896	0	-0.0022166	-0.0058001	-0.0080781
C	0.5947798	-0.3113199	0.1187200	0	-0.0010619	-0.0036788	-0.0019153
O	0.5374098	-0.7055697	-1.0149396	0	0.0001832	0.0068495	-0.0067570
O	1.6880393	0.2352099	0.6611997	0	0.0157355	-0.0106203	-0.0024342
C	2.8315189	0.3109699	-0.1890599	0	-0.0058687	0.0004671	0.0011235
H	-2.5604090	1.2862295	0.5159098	0	-0.0017912	0.0013622	0.0040158
H	-3.3494887	0.1694699	-0.5930498	0	-0.0038019	0.0009468	-0.0015104
H	-1.7446193	0.8108697	-0.9904796	0	-0.0004240	-0.0003510	-0.0003546
H	-1.7801393	-1.4788994	-0.0373100	0	0.0035439	-0.0031302	-0.0035358
H	-0.2629099	-1.2092895	1.8257493	0	-0.0036844	-0.0015911	0.0023495
H	-0.5613498	0.5100998	1.7189993	0	-0.0006118	0.0015527	-0.0017206
H	3.6152086	0.7713297	0.4068399	0	0.0021023	0.0010919	0.0020297
H	2.6144090	0.9188097	-1.0673496	0	-0.0006792	0.0046311	-0.0008399
H	3.1343888	-0.6847197	-0.5133198	0	0.0013935	-0.0030983	-0.0027798
