18
Properties=species:S:1:pos:R:3:molID:I:1:forces_dft:R:3 Nmols=1 Comp=VC(1) energy_dft=-7892.302680670959 pbc="F F F"
C	-2.5579690	0.1719499	0.1861099	0	0.0047075	-0.0089096	0.0035950
C	-1.2976095	-0.5541798	-0.2601999	0	0.0022745	0.0092292	0.0000856
C	0.0031100	0.1315500	0.1809399	0	0.0000396	-0.0070598	-0.0024948
C	1.2515295	-0.6656297	-0.2216699	0	0.0001841	0.0102705	0.0042879
C	2.5553290	-0.0607900	0.2776099	0	-0.0033253	-0.0028398	-0.0005482
C	0.0717699	1.4948694	-0.3589199	0	-0.0016261	0.0063889	0.0037439
N	0.1249700	2.5532290	-0.7997897	0	-0.0030905	-0.0029210	0.0061451
H	-3.4494086	-0.3665298	-0.1378100	0	-0.0026832	-0.0002403	-0.0012891
H	-2.6047790	1.1784396	-0.2337599	0	0.0036468	0.0023432	-0.0020955
H	-2.5989490	0.2604199	1.2744295	0	0.0005479	-0.0017185	0.0049757
H	-1.2838695	-1.5676294	0.1498000	0	-0.0010327	-0.0029549	0.0001129
H	-1.2873195	-0.6560897	-1.3491095	0	0.0001380	0.0004546	-0.0046279
H	-0.0091400	0.2350299	1.2723695	0	-0.0001208	-0.0041597	0.0042382
H	1.1321695	-1.6772294	0.1756999	0	0.0007522	-0.0030563	-0.0027953
H	1.2718895	-0.7573297	-1.3113595	0	-0.0002185	-0.0005948	-0.0054969
H	2.5632090	0.0159700	1.3675595	0	-0.0001772	-0.0015997	0.0044981
H	3.4054687	-0.6764497	-0.0186100	0	0.0011589	-0.0022106	-0.0017021
H	2.7095989	0.9403897	-0.1293800	0	0.0004049	0.0044054	-0.0015817
