12
Properties=species:S:1:pos:R:3:molID:I:1:forces_dft:R:3 Nmols=1 Comp=VC(1) energy_dft=-9350.598089898765 pbc="F F F"
O	-1.6181693	0.8238397	-0.2840899	0	0.0020364	0.0002344	0.0066652
C	-1.1268396	-0.4031098	0.1922899	0	-0.0069011	0.0116861	-0.0033704
C	0.3797398	-0.5070098	-0.0050000	0	0.0020531	0.0004904	-0.0026700
O	0.6784897	-0.4398598	-1.3705994	0	-0.0001335	-0.0019463	0.0104836
C	1.1013096	0.5913198	0.7413197	0	0.0060392	0.0003225	-0.0006151
O	1.8951693	1.3095295	0.1969599	0	-0.0096185	-0.0098263	-0.0079831
H	-1.3298795	0.9075097	-1.1979795	0	0.0042175	0.0003566	-0.0030782
H	-1.6023094	-1.2530195	-0.3107199	0	0.0016629	-0.0037108	-0.0034649
H	-1.3718295	-0.4610398	1.2555695	0	-0.0003549	-0.0023622	0.0039909
H	0.7248597	-1.4606294	0.4281798	0	-0.0019905	-0.0007900	0.0019165
H	1.3964595	0.2017199	-1.4645294	0	-0.0004559	0.0001645	-0.0016388
H	0.8730096	0.6907597	1.8185993	0	-0.0013306	-0.0000991	0.0036801
