14
Properties=species:S:1:pos:R:3:molID:I:1:forces_dft:R:3 Nmols=1 Comp=VC(1) energy_dft=-6350.333567272179 pbc="F F F"
C	2.7138790	-1.2585295	-0.5333598	0	-0.0109852	0.0091782	0.0090393
C	1.8360093	-0.7031797	0.0622800	0	0.0109844	-0.0098016	-0.0082718
C	0.7576897	-0.0138700	0.7701397	0	0.0021657	-0.0112911	0.0000152
C	-0.2458899	0.6224397	-0.1670500	0	-0.0052282	-0.0034958	0.0041190
C	-1.6462793	0.8626397	0.3054599	0	0.0045004	0.0002016	0.0044368
C	-1.3670695	-0.1973999	-0.7217697	0	0.0090119	0.0074784	-0.0016128
H	3.4952886	-1.7535293	-1.0594296	0	0.0010892	-0.0007368	-0.0051115
H	0.2459799	-0.7298197	1.4205795	0	-0.0006852	-0.0025967	0.0024240
H	1.1923696	0.7456597	1.4263194	0	0.0020087	-0.0009967	-0.0005460
H	0.1766899	1.3683894	-0.8301397	0	0.0013194	0.0026336	0.0031431
H	-2.1463292	1.7673693	-0.0134100	0	0.0014609	0.0007919	0.0026461
H	-1.9037892	0.5404398	1.3071195	0	0.0009436	-0.0027052	0.0034281
H	-1.4316294	-1.2331395	-0.4116199	0	-0.0024895	-0.0031665	-0.0001459
H	-1.6769094	-0.0174700	-1.7423393	0	-0.0029236	0.0019905	-0.0022092
