14
Properties=species:S:1:pos:R:3:molID:I:1:forces_dft:R:3 Nmols=1 Comp=VC(1) energy_dft=-8372.897634654717 pbc="F F F"
C	1.9223192	0.0292100	-0.5194198	0	-0.0060764	-0.0053745	-0.0005498
O	0.8061797	-0.6975697	-0.0625200	0	0.0102024	0.0072160	0.0104119
C	-0.4014499	0.0143900	-0.1691900	0	-0.0029592	-0.0097452	-0.0005599
C	-1.5475494	-0.9589396	0.0481400	0	0.0053976	-0.0003891	-0.0153198
C	-0.4756698	1.1050396	0.8878297	0	-0.0032607	0.0115569	0.0002639
O	-1.1073996	2.1165392	0.7708697	0	0.0081595	0.0000487	-0.0025273
H	2.7974289	-0.6041997	-0.3857898	0	0.0020735	-0.0052570	-0.0013654
H	1.8205193	0.2826999	-1.5817694	0	-0.0005955	-0.0011695	-0.0047349
H	2.0690292	0.9583996	0.0459100	0	-0.0047850	0.0014537	0.0007118
H	-0.4902898	0.4910498	-1.1550596	0	0.0026766	0.0002651	-0.0004359
H	-1.5010694	-1.7496893	-0.7001097	0	-0.0012198	-0.0018902	-0.0006765
H	-1.4760394	-1.4169594	1.0365396	0	-0.0033644	-0.0029372	0.0032283
H	-2.5036790	-0.4417198	-0.0337400	0	-0.0015376	0.0022225	-0.0025147
H	0.0876700	0.8717597	1.8183093	0	-0.0022527	-0.0018245	0.0020381
