17
Properties=species:S:1:pos:R:3:molID:I:1:forces_dft:R:3 Nmols=1 Comp=VC(1) energy_dft=-8431.329502740218 pbc="F F F"
C	2.0713292	0.1499399	0.2730099	0	-0.0007059	-0.0024706	0.0017160
C	0.9270796	-0.4454498	-0.5320098	0	-0.0015517	0.0056225	0.0106500
C	-0.4543598	-0.2634299	0.1062900	0	-0.0077173	0.0081843	-0.0047727
C	-1.5393994	-0.8931096	-0.7685997	0	0.0054548	0.0011411	0.0012066
O	-0.3999499	-0.9229996	1.3673494	0	0.0025642	-0.0073213	0.0021124
C	-0.7566697	1.1689796	0.3028299	0	-0.0026981	0.0118293	0.0000365
C	-1.0341496	2.3226191	0.4667898	0	0.0006297	-0.0163775	0.0019540
H	3.0243688	-0.0317200	-0.2262499	0	0.0040684	-0.0003083	-0.0004406
H	2.1153792	-0.2941799	1.2672395	0	-0.0066005	-0.0026750	0.0008943
H	1.9518892	1.2288495	0.3886299	0	-0.0017271	0.0047160	0.0007398
H	1.0733796	-1.5222494	-0.6552597	0	0.0021328	-0.0034707	0.0048417
H	0.8957597	-0.0069400	-1.5326294	0	0.0023750	0.0042672	-0.0010143
H	-2.5181990	-0.7906197	-0.2966299	0	-0.0020314	-0.0019594	0.0035921
H	-1.5809794	-0.4103198	-1.7458393	0	0.0052266	0.0020705	-0.0022721
H	-1.3230595	-1.9540592	-0.9005797	0	-0.0013369	-0.0040820	0.0006294
H	-1.1812995	-0.6851698	1.8711593	0	0.0017929	0.0022672	0.0006444
H	-1.2711295	3.3498487	0.6145098	0	-0.0032202	0.0051912	-0.0007918
