14
Properties=species:S:1:pos:R:3:molID:I:1:forces_dft:R:3 Nmols=1 Comp=VC(1) energy_dft=-7361.304899154168 pbc="F F F"
C	-1.4250294	1.0633796	-0.2747699	0	-0.0036882	-0.0001917	-0.0012143
C	-1.0026896	-0.3661698	0.0268600	0	-0.0046896	0.0052670	0.0002728
C	0.4376998	-0.4775898	0.5136898	0	0.0080603	-0.0064571	0.0056199
O	0.6575397	-1.8290393	0.8784696	0	-0.0113910	0.0128302	0.0014115
C	1.4040595	-0.0350800	-0.5030998	0	0.0082515	0.0059598	-0.0142958
C	2.2070291	0.3119599	-1.3212195	0	-0.0134059	-0.0057412	0.0114484
H	-1.3351995	1.6993793	0.6093197	0	-0.0013493	0.0007976	0.0009441
H	-2.4650690	1.0962396	-0.6013698	0	-0.0041280	0.0026167	-0.0012817
H	-0.8116997	1.4997394	-1.0653196	0	0.0026996	0.0005923	-0.0020771
H	-1.1096596	-0.9984296	-0.8574797	0	-0.0010466	-0.0005440	0.0004262
H	-1.6325494	-0.7973497	0.8084197	0	0.0016944	-0.0006848	0.0033170
H	0.5619498	0.1725599	1.3916495	0	0.0034654	0.0048069	0.0017714
H	1.5957494	-1.9568592	1.0324096	0	0.0046860	0.0001038	0.0006915
H	2.9178689	0.6172797	-2.0523692	0	0.0020691	-0.0052108	-0.0033217
