15
Properties=species:S:1:pos:R:3:molID:I:1:forces_dft:R:3 Nmols=1 Comp=VC(1) energy_dft=-9410.186505274927 pbc="F F F"
C	-2.2087391	0.0602500	-0.7707397	0	0.0036422	-0.0078222	0.0030635
C	-1.0678096	-0.4682098	0.0878199	0	0.0016804	0.0068494	-0.0012074
C	0.2541499	0.2103899	-0.2297799	0	0.0018907	-0.0055114	-0.0009621
C	1.4030794	-0.2776199	0.6006798	0	-0.0008006	-0.0034542	0.0067541
O	1.3353595	-1.1254096	1.4529694	0	0.0084645	0.0070628	-0.0068761
C	2.7793289	0.3541098	0.3458199	0	-0.0004651	0.0059246	-0.0114233
O	2.9751888	1.1974395	-0.4803398	0	0.0056278	-0.0191478	0.0131287
H	-2.3563591	1.1323296	-0.6189398	0	-0.0028209	0.0043682	0.0060905
H	-3.1469887	-0.4404998	-0.5278498	0	-0.0034612	0.0006247	0.0002968
H	-2.0130092	-0.0991699	-1.8338993	0	0.0007063	0.0015015	-0.0038899
H	-0.9592296	-1.5465594	-0.0515800	0	0.0016021	-0.0041312	-0.0007992
H	-1.2969495	-0.3273598	1.1468595	0	0.0006556	0.0004733	0.0014630
H	0.5335998	0.0828700	-1.2820795	0	-0.0025318	0.0004893	-0.0014614
H	0.1942999	1.2969995	-0.0964200	0	-0.0024042	0.0037974	0.0018186
H	3.5740986	-0.0495700	1.0028496	0	0.0036039	-0.0038954	-0.0021792
