13
Properties=species:S:1:pos:R:3:molID:I:1:forces_dft:R:3 Nmols=1 Comp=VC(1) energy_dft=-7799.419926712642 pbc="F F F"
C	1.5963894	0.3732099	-0.2475899	0	0.0020006	-0.0006673	0.0059064
C	0.3938898	0.3026699	0.6815797	0	0.0002963	0.0023411	0.0028459
C	-0.7640397	-0.5028598	0.1061799	0	-0.0079755	-0.0018754	0.0027582
O	-1.7875793	-0.5498998	1.0717696	0	-0.0091747	0.0097947	-0.0125971
C	-1.2571495	0.0922199	-1.1562295	0	0.0051629	0.0028789	-0.0003340
N	-1.6541694	0.5377998	-2.1359091	0	-0.0009495	0.0009320	-0.0026803
H	2.4103491	0.9228497	0.2251299	0	0.0024073	0.0018487	0.0010441
H	1.9694592	-0.6237198	-0.4938198	0	0.0005553	-0.0039443	-0.0001068
H	1.3508995	0.8804597	-1.1825895	0	-0.0041511	-0.0018682	-0.0030927
H	0.0253400	1.3024595	0.9207596	0	-0.0023083	0.0021026	0.0026531
H	0.6609397	-0.1754100	1.6262393	0	0.0016923	0.0013757	0.0021080
H	-0.4115298	-1.5128894	-0.1425200	0	0.0017504	-0.0039275	-0.0003759
H	-2.5327890	-1.0468696	0.7269897	0	-0.0002976	-0.0030749	0.0004635
