15
Properties=species:S:1:pos:R:3:molID:I:1:forces_dft:R:3 Nmols=1 Comp=VC(1) energy_dft=-10417.297241711774 pbc="F F F"
C	-1.9903692	0.6093297	-0.6847397	0	0.0309326	-0.0017943	0.0033312
O	-1.8054893	0.1852199	0.5072498	0	0.0074509	-0.0006194	0.0004442
C	-0.5057498	-1.3112895	0.6969797	0	0.0069503	0.0048877	0.0011651
C	0.3935998	-0.7352197	-0.1722899	0	0.0015960	0.0078864	-0.0032447
O	0.0700600	-0.6014198	-1.4047795	0	-0.0117187	-0.0020705	0.0046110
O	1.4494794	-0.0743700	0.3256099	0	-0.0051829	-0.0068935	0.0124785
C	2.2127191	0.7015197	-0.5877197	0	-0.0098434	-0.0023001	-0.0005141
H	-2.8250789	0.1883399	-1.2623395	0	-0.0042406	-0.0054141	-0.0044332
H	-0.9240496	0.0140300	-1.3891795	0	0.0012220	0.0059710	0.0037798
H	-1.7002794	1.6449093	-0.9033696	0	0.0003911	-0.0006753	0.0040206
H	-0.3216899	-1.2909895	1.7606093	0	-0.0033037	-0.0069068	0.0011393
H	-1.1962795	-2.0416392	0.3088999	0	-0.0040671	-0.0061535	-0.0066320
H	2.5774790	0.0893700	-1.4140394	0	0.0007663	0.0009010	-0.0012728
H	1.6261094	1.5288894	-0.9898396	0	-0.0058351	0.0029882	-0.0057097
H	3.0500588	1.0903996	-0.0138800	0	0.0002362	0.0044384	-0.0003139
