18
Properties=species:S:1:pos:R:3:molID:I:1:forces_dft:R:3 Nmols=1 Comp=VC(1) energy_dft=-7889.083601930873 pbc="F F F"
C	-2.5179990	-0.0839100	-0.6313698	0	0.0039988	-0.0021217	-0.0012313
C	-1.1720595	0.6057798	-0.7062197	0	0.0025692	0.0076028	0.0396585
C	-0.0254800	-0.1014900	-1.0244596	0	0.0083095	0.0123463	-0.0034170
C	1.3027995	-0.5354998	0.8081897	0	0.0075104	0.0146495	-0.0066268
C	2.6656490	-0.0349100	0.4097498	0	-0.0033615	-0.0058190	0.0018406
C	0.4682198	0.1934099	1.5773994	0	-0.0136765	0.0058843	-0.0002074
N	-0.4838498	0.8648596	1.8269893	0	0.0069030	-0.0004786	-0.0035138
H	-3.2167687	0.4657198	0.0010300	0	-0.0020483	-0.0029002	-0.0039430
H	-2.9723188	-0.1793399	-1.6210493	0	-0.0012304	-0.0027547	-0.0065871
H	-2.4159990	-1.0877996	-0.2131499	0	-0.0017624	-0.0046023	0.0011977
H	-1.1889195	1.6531594	-1.0031496	0	-0.0002612	0.0030656	-0.0050234
H	-0.9548196	0.9086696	0.6861197	0	-0.0024037	-0.0044470	-0.0077291
H	-0.0765199	-1.1699095	-1.1998895	0	0.0017931	-0.0066710	-0.0019948
H	0.8187497	0.4031398	-1.4760094	0	0.0034022	0.0036788	0.0002962
H	1.1815195	-1.6114794	0.8914297	0	-0.0007282	-0.0050937	-0.0019114
H	2.9649088	-0.4786098	-0.5417098	0	0.0006895	-0.0004344	-0.0029893
H	2.6679389	1.0497796	0.2971999	0	-0.0017523	0.0053945	-0.0028623
H	3.4249086	-0.3006999	1.1484096	0	-0.0001681	0.0015640	0.0034020
