13
Properties=species:S:1:pos:R:3:molID:I:1:forces_dft:R:3 Nmols=1 Comp=VC(1) energy_dft=-8361.337489092286 pbc="F F F"
O	1.5909894	-1.3885994	0.5504498	0	0.0027757	0.0037381	-0.0076343
C	1.4156294	-0.1284199	0.5414098	0	0.0035474	0.0094099	0.0002026
C	-0.2952399	0.4520698	-0.5026098	0	0.0158349	0.0014615	0.0089513
C	-0.8216697	-0.8086697	-0.4474098	0	-0.0044520	-0.0027496	-0.0010153
C	-0.7444197	-2.0300592	-0.2139599	0	-0.0005684	0.0024804	0.0025931
C	-0.8191097	1.5230894	0.2971399	0	-0.0058565	0.0114938	0.0120756
C	-1.2056195	2.4362991	0.9692296	0	0.0044461	-0.0101203	-0.0159577
H	0.4788398	-1.9310592	0.3036899	0	0.0057758	0.0046865	0.0011362
H	1.0727196	0.3674599	1.4555594	0	-0.0038417	-0.0016943	-0.0001262
H	2.0525792	0.4700498	-0.1153299	0	-0.0011337	-0.0039904	-0.0034110
H	0.0998100	0.7565397	-1.4686794	0	-0.0035403	-0.0014896	-0.0027118
H	-1.2605395	-2.9635388	-0.3274499	0	-0.0149491	-0.0027572	-0.0000214
H	-1.5639694	3.2448387	1.5613194	0	-0.0010397	0.0024879	-0.0015680
