12
Properties=species:S:1:pos:R:3:molID:I:1:forces_dft:R:3 Nmols=1 Comp=VC(1) energy_dft=-8798.176200388427 pbc="F F F"
O	0.3915399	-2.4555490	0.2950799	0	0.0037444	0.0177085	-0.0013623
C	0.6367297	-1.3106095	0.2988699	0	-0.0034539	-0.0161815	-0.0078710
C	1.4770094	-0.3204999	0.7596997	0	0.0004285	0.0083722	0.0007406
C	1.5530994	0.9449396	0.5897898	0	0.0035279	0.0000008	-0.0002486
C	-0.6166097	-0.2950199	-0.8128697	0	0.0130531	-0.0019963	0.0023430
C	-1.4953194	0.4909198	0.0462500	0	0.0005702	0.0018533	0.0018429
N	-0.5125698	1.0056196	-0.9422796	0	0.0033096	0.0020216	0.0015736
H	2.2418091	1.6735494	0.9902096	0	-0.0043505	0.0006754	0.0016341
H	-0.6654098	-1.0634196	-1.5729394	0	-0.0031542	-0.0031287	-0.0028290
H	-1.2384695	0.5630698	1.1008796	0	-0.0033112	-0.0005484	0.0020656
H	-2.5400290	0.6620497	-0.1910699	0	-0.0056477	0.0016883	-0.0002786
H	0.6788797	1.3185795	-0.1737999	0	-0.0076575	-0.0021860	-0.0009439
