14
Properties=species:S:1:pos:R:3:molID:I:1:forces_dft:R:3 Nmols=1 Comp=VC(1) energy_dft=-9843.444278868088 pbc="F F F"
O	1.7618593	1.3388895	-0.2155899	0	0.0056733	0.0000498	0.0076739
C	1.4048195	0.2384599	-0.7287297	0	0.0090543	0.0060124	0.0185331
C	-0.4057198	-0.2083099	0.1257200	0	0.0219681	0.0026732	-0.0025994
C	-0.7945397	-1.5792494	0.3911699	0	-0.0008959	-0.0004251	0.0015884
N	-0.0521500	-0.7600997	1.3790294	0	-0.0049746	-0.0045845	-0.0015621
C	-0.8984396	0.9686396	-0.3702999	0	0.0001871	-0.0033215	-0.0006804
O	-0.4623298	2.1135892	0.0346900	0	-0.0059055	0.0000118	-0.0028276
H	0.6368398	1.9825292	0.0557900	0	0.0095566	-0.0030424	-0.0028204
H	1.2038795	0.1791799	-1.8084193	0	-0.0075333	-0.0042802	-0.0080281
H	1.7521793	-0.6945197	-0.2721199	0	-0.0034240	0.0006620	0.0002493
H	-0.2265899	-2.4063191	-0.0197700	0	-0.0061211	-0.0031150	0.0001174
H	-1.8441592	-1.7881093	0.5716698	0	-0.0067814	-0.0030300	0.0044217
H	-0.6465197	-0.4121098	2.1229792	0	-0.0060086	-0.0018317	0.0014020
H	-1.5211394	0.9474296	-1.2684395	0	-0.0101630	-0.0018217	-0.0021699
