17
Properties=species:S:1:pos:R:3:molID:I:1:forces_dft:R:3 Nmols=1 Comp=VC(1) energy_dft=-7417.342771675186 pbc="F F F"
C	1.9981592	0.6773297	0.4008498	0	0.0030459	0.0163799	-0.0006548
C	1.2452695	-0.4695898	0.1900799	0	0.0215952	-0.0070320	0.0114848
C	-0.7740197	-0.1639799	-0.1496099	0	0.0319514	-0.0031283	0.0028133
C	-1.3270095	-1.2033895	-1.0557596	0	-0.0020477	0.0075352	0.0002082
C	-1.5943694	-1.2604395	0.4283098	0	0.0000760	0.0020987	-0.0028193
C	-0.8743696	1.1807295	-0.1082500	0	-0.0028778	0.0000957	-0.0059315
C	-0.1958499	2.2320791	0.0691999	0	0.0120578	-0.0060506	-0.0047425
H	2.6355590	1.0514996	-0.3917798	0	-0.0063255	-0.0055599	-0.0038860
H	2.2948291	0.9446196	1.4085295	0	-0.0050437	-0.0004064	0.0034136
H	0.9411297	1.7790293	0.2600999	0	-0.0066839	0.0014590	0.0077813
H	1.3561595	-0.9874996	-0.7546497	0	-0.0054922	-0.0021459	-0.0024551
H	1.0302896	-1.1049996	1.0404396	0	-0.0037650	-0.0033626	-0.0025576
H	-2.1337491	-0.9209997	-1.7190493	0	-0.0051344	0.0020312	-0.0019127
H	-0.6397698	-1.9351492	-1.4632994	0	-0.0081934	-0.0051747	-0.0014693
H	-1.0844796	-2.0299792	0.9953296	0	-0.0070013	-0.0011190	0.0024106
H	-2.5853490	-1.0143396	0.7861097	0	-0.0078983	-0.0015831	-0.0007752
H	-0.3360899	3.2974087	0.0963300	0	-0.0079455	0.0026744	-0.0033531
