14
Properties=species:S:1:pos:R:3:molID:I:1:forces_dft:R:3 Nmols=1 Comp=VC(1) energy_dft=-7358.673362943421 pbc="F F F"
C	-1.1899095	0.6422697	-0.9504196	0	0.0365158	0.0152614	-0.0041794
C	-1.1824996	-0.2206399	0.1472400	0	0.0281117	-0.0019103	0.0193048
C	0.6770597	-0.6660897	0.9403897	0	0.0079218	0.0009378	0.0095098
O	0.8379697	-2.0211892	0.7680897	0	-0.0119926	-0.0111701	-0.0071522
C	1.4594394	0.2353599	0.2631799	0	-0.0069363	0.0031864	-0.0052786
C	1.4179295	1.0879595	-0.6638597	0	-0.0068150	0.0103320	0.0033396
H	0.1930099	1.0436496	-1.0407996	0	-0.0078200	-0.0114571	-0.0074366
H	-1.6105293	1.6356394	-0.8359797	0	-0.0070082	0.0017326	-0.0023857
H	-1.2818495	0.2234199	-1.9473992	0	-0.0004876	0.0040248	-0.0053502
H	-1.3327995	-1.2807695	-0.0167600	0	-0.0018707	-0.0073602	-0.0006557
H	-1.5919994	0.1489699	1.0802496	0	-0.0039254	-0.0036827	0.0016030
H	0.4204299	-0.4570698	1.9726492	0	-0.0100944	-0.0046263	0.0031238
H	1.2107295	-2.1760292	-0.1040300	0	-0.0064825	-0.0010302	-0.0071761
H	2.0583792	1.8068093	-1.1435695	0	-0.0130498	0.0008703	-0.0022443
