11
Properties=species:S:1:pos:R:3:molID:I:1:forces_dft:R:3 Nmols=1 Comp=VC(1) energy_dft=-7763.420651458650 pbc="F F F"
C	-1.3921094	0.4359898	0.1120700	0	0.0088709	0.0172430	-0.0021442
C	-0.9494996	-0.8473796	0.3303399	0	-0.0027901	-0.0114883	0.0017197
O	-0.9453796	-1.9819192	0.4985898	0	0.0028410	0.0074463	-0.0010670
C	1.6129494	-0.4902998	0.1159799	0	0.0025674	0.0027352	-0.0104350
C	1.3051395	0.6086898	-0.5932798	0	-0.0053863	0.0053030	-0.0027121
N	0.7131897	1.4978994	-1.1122596	0	0.0012930	-0.0084102	0.0099218
H	-2.3386791	0.4468398	-0.4220098	0	-0.0028663	-0.0027804	-0.0020545
H	-0.4510898	1.0863196	-0.6470497	0	0.0016095	-0.0054101	0.0025353
H	-1.3660995	1.0369096	1.0178596	0	-0.0025520	-0.0021674	0.0008989
H	1.8217893	-1.4132095	-0.4082698	0	-0.0036938	-0.0037612	0.0010001
H	2.0217292	-0.3736799	1.1113595	0	-0.0010505	0.0002314	0.0032114
