18
Properties=species:S:1:pos:R:3:molID:I:1:forces_dft:R:3 Nmols=1 Comp=VC(1) energy_dft=-8900.299682275356 pbc="F F F"
C	-1.2367895	-1.4339694	0.3303299	0	0.0066569	-0.0012385	-0.0101713
C	-0.8874796	-0.2426299	-0.5060098	0	0.0368465	0.0046242	0.0161827
C	-1.6561593	0.9223596	-0.4475198	0	0.0187215	0.0272656	0.0250710
N	0.9385096	0.1279700	0.2766499	0	0.0019948	0.0027537	-0.0071206
C	2.0412392	-0.6551598	-0.2178499	0	-0.0064347	0.0119673	0.0026220
C	1.1291996	1.3736195	0.5464298	0	0.0007971	-0.0041367	-0.0126096
O	0.1751199	2.1534092	0.8950197	0	-0.0350582	-0.0102878	-0.0063738
H	-1.5199094	-1.1262696	1.3371195	0	-0.0045875	-0.0000313	0.0010860
H	-2.0969492	-1.9341492	-0.1243599	0	-0.0064059	-0.0062628	-0.0000492
H	-0.4184098	-2.1493692	0.3979298	0	-0.0023667	-0.0030948	-0.0001464
H	-0.3848398	-0.4689698	-1.4420594	0	-0.0049858	-0.0075256	-0.0029060
H	-0.7638197	1.6844293	0.3698599	0	-0.0079740	-0.0111318	-0.0110224
H	-1.7376993	1.5256994	-1.3447795	0	-0.0061318	-0.0048906	-0.0035039
H	-2.5309090	0.9097097	0.1969599	0	-0.0076373	-0.0025810	0.0009217
H	2.2054891	-1.5279394	0.4178399	0	-0.0059647	-0.0019578	0.0003985
H	1.8338093	-1.0170596	-1.2300395	0	-0.0058611	0.0024395	-0.0047599
H	2.9715388	-0.0760300	-0.2560999	0	-0.0026451	0.0018419	0.0018186
H	2.1327892	1.8202793	0.4538398	0	-0.0051224	0.0008826	-0.0005717
