16
Properties=species:S:1:pos:R:3:molID:I:1:forces_dft:R:3 Nmols=1 Comp=VC(1) energy_dft=-7853.793935653838 pbc="F F F"
C	2.3226891	0.6039898	0.7335797	0	-0.0053043	0.0010906	0.0008649
C	1.1506396	0.0310500	0.0274700	0	0.0025334	-0.0076573	-0.0005917
C	0.7564197	-0.9880196	-0.6126998	0	-0.0044359	0.0059525	0.0017590
C	-0.3019499	-1.4959294	-1.2856295	0	0.0112005	0.0175447	0.0041793
N	-1.6703993	-0.0612400	-1.0174596	0	0.0021097	-0.0032033	0.0028872
C	-2.0181692	0.0949100	0.4159398	0	0.0088546	-0.0004043	-0.0069023
C	-1.2486595	1.0199796	-0.4047998	0	0.0228597	0.0058173	0.0079667
H	2.6296990	1.5462194	0.2758899	0	-0.0027312	0.0006426	0.0009150
H	3.1640988	-0.0866500	0.6971597	0	0.0005076	-0.0030299	-0.0031016
H	2.0851992	0.8072297	1.7794093	0	-0.0076996	-0.0004666	0.0033811
H	-0.2921299	-1.4856494	-2.3691891	0	-0.0049158	-0.0055996	-0.0039676
H	-0.8859397	-2.2949591	-0.8419197	0	-0.0080406	-0.0034920	-0.0020282
H	-1.4642494	-0.5070898	1.1346696	0	-0.0057086	-0.0034452	0.0008799
H	-3.0737888	0.2295299	0.6327297	0	-0.0077746	0.0007272	0.0002622
H	-1.2229895	2.0455492	-0.7452597	0	-0.0045193	0.0000186	-0.0042141
H	0.1394699	0.7733197	0.0042200	0	-0.0047820	-0.0080199	-0.0061781
