16
Properties=species:S:1:pos:R:3:molID:I:1:forces_dft:R:3 Nmols=1 Comp=VC(1) energy_dft=-8866.509765513030 pbc="F F F"
C	-1.9707492	0.2143099	-0.1716499	0	0.0110349	0.0181650	-0.0023872
C	-1.0571396	-0.4052798	0.6764297	0	0.0056660	-0.0024403	-0.0011215
O	-0.5986697	-1.6497694	0.4724498	0	0.0028362	0.0073336	0.0042521
C	1.1380295	0.8073297	0.3281499	0	-0.0019512	0.0009737	-0.0024918
C	2.1019692	-0.3421799	0.2459099	0	-0.0064580	-0.0058923	0.0071451
C	0.5545998	1.3385095	-0.7606297	0	-0.0000570	-0.0006078	-0.0075671
N	-0.2437699	1.6276793	-1.5938294	0	-0.0011440	-0.0101077	0.0011016
H	-2.5684390	1.0012696	0.2750499	0	-0.0033296	-0.0028855	-0.0036611
H	-2.5161990	-0.4327698	-0.8557196	0	0.0012353	0.0002246	0.0011112
H	-1.2340495	0.9454196	-1.0542196	0	-0.0023101	-0.0096462	-0.0003779
H	-0.8620597	-0.0662700	1.6823194	0	-0.0026813	0.0016038	0.0023310
H	-0.8621597	-1.9548692	-0.4009799	0	-0.0017219	-0.0048410	-0.0046189
H	1.1946195	1.4552894	1.1972095	0	-0.0011873	0.0007287	-0.0010047
H	3.1393587	-0.0041000	0.3070699	0	0.0030257	0.0001278	0.0068869
H	1.9836992	-0.8877297	-0.6904397	0	0.0009180	-0.0041264	-0.0030370
H	1.9304692	-1.0465496	1.0623696	0	-0.0019942	-0.0027375	-0.0012109
