16
Properties=species:S:1:pos:R:3:molID:I:1:forces_dft:R:3 Nmols=1 Comp=VC(1) energy_dft=-8865.685140018753 pbc="F F F"
C	2.2496591	-0.7794897	0.0823100	0	-0.0033133	-0.0070610	0.0036788
C	1.2509395	0.3375798	0.1413099	0	0.0045731	0.0065579	0.0026806
N	0.8746697	0.8940197	-1.0249896	0	-0.0052922	-0.0001832	-0.0051171
O	0.6175998	0.5553298	1.2011695	0	0.0159908	-0.0094382	0.0228711
C	-1.1870495	-0.2621399	0.8028197	0	0.0074765	0.0032588	0.0036810
C	-1.3794695	-0.3500598	-0.5371298	0	0.0281589	0.0070837	-0.0193923
C	-2.0938192	0.7420097	0.2268699	0	0.0002422	-0.0018172	0.0028379
H	2.6914789	-0.9446796	1.0628196	0	-0.0039496	-0.0023779	0.0040286
H	1.7135493	-1.6899593	-0.2090699	0	-0.0063805	-0.0049065	-0.0075986
H	3.0165388	-0.5880598	-0.6646998	0	-0.0045715	0.0001924	-0.0021769
H	0.3713599	1.7520093	-0.7984597	0	-0.0032227	0.0042605	-0.0021478
H	-1.1286896	-0.8683497	1.6880493	0	-0.0028113	0.0009571	0.0008030
H	-0.2039499	0.2186999	-1.0866296	0	-0.0118792	-0.0090090	0.0044848
H	-1.6930393	-1.1701795	-1.1649796	0	0.0006775	-0.0017335	-0.0020091
H	-1.7382893	1.7611893	0.0977499	0	-0.0074789	0.0003764	-0.0009654
H	-3.1500588	0.6708597	0.4750898	0	-0.0062458	-0.0049814	-0.0004090
