14
Properties=species:S:1:pos:R:3:molID:I:1:forces_dft:R:3 Nmols=1 Comp=VC(1) energy_dft=-8370.148348869472 pbc="F F F"
C	-1.7883793	-0.6348597	-0.3663499	0	-0.0007713	-0.0059438	-0.0076509
C	-0.5458598	0.0934200	-0.8308896	0	0.0102113	-0.0085731	0.0002923
O	-0.1854199	1.1380595	-0.1642799	0	0.0623241	0.0046050	0.0182133
C	1.5598594	1.1031196	0.5491398	0	-0.0069387	0.0044413	-0.0036490
C	1.4357094	-0.1802099	1.0466796	0	-0.0131435	0.0029871	-0.0051234
O	1.3326195	-1.1348496	0.1934699	0	0.0038369	0.0003277	0.0001346
H	-2.6735589	-0.0092900	-0.5053598	0	-0.0099657	-0.0032824	-0.0001215
H	-1.7095793	-0.8681097	0.6977597	0	-0.0065924	-0.0080887	0.0033424
H	-1.9283793	-1.5633694	-0.9213497	0	-0.0017243	-0.0063853	-0.0003059
H	0.4189399	-0.8139197	-0.5060498	0	-0.0036335	0.0010474	0.0006261
H	-0.3448599	0.1187000	-1.9133693	0	-0.0057395	-0.0053783	-0.0056567
H	1.5186294	1.9538492	1.2155195	0	-0.0083268	0.0018631	0.0003257
H	2.0458892	1.2525195	-0.4048198	0	-0.0033805	-0.0005954	-0.0053616
H	1.1197795	-0.3588398	2.0766992	0	-0.0088429	0.0005058	0.0011988
