16
Properties=species:S:1:pos:R:3:molID:I:1:forces_dft:R:3 Nmols=1 Comp=VC(1) energy_dft=-9877.418556536260 pbc="F F F"
C	-1.8272593	-0.6752798	-0.6444597	0	0.0129167	0.0040356	-0.0035183
C	-0.7700597	0.1890999	0.0114400	0	0.0124422	0.0006097	0.0044962
O	-1.0114396	1.5756294	-0.0511300	0	0.0035631	-0.0087909	-0.0017696
C	-0.1145199	-0.2161999	1.1675196	0	0.0372094	0.0002246	0.0112566
N	1.9034092	-0.2922999	0.8331797	0	0.0022745	-0.0066068	0.0059823
C	2.1447391	0.2580799	-0.3164999	0	-0.0012171	0.0112729	0.0090922
O	1.4077095	-0.0149300	-1.3251695	0	-0.0075952	-0.0066005	0.0125036
H	-1.5735894	-1.7325093	-0.5559198	0	-0.0021979	-0.0031029	-0.0056832
H	-1.9159993	-0.4462798	-1.7092393	0	-0.0066545	0.0014107	-0.0079236
H	-2.8052089	-0.5107098	-0.1851099	0	-0.0092830	0.0004425	-0.0025091
H	0.3146299	-0.0538500	-0.7899197	0	0.0038755	-0.0033202	-0.0039847
H	-0.8986597	1.8671293	-0.9582796	0	-0.0065283	0.0036000	-0.0072255
H	0.0677399	0.5027898	1.9546392	0	0.0005273	-0.0001459	-0.0024455
H	-0.1662600	-1.2526595	1.4649694	0	-0.0100323	-0.0062709	-0.0005040
H	2.4582390	0.1158800	1.5769194	0	-0.0053350	-0.0040101	0.0021436
H	2.9285289	1.0162196	-0.4528298	0	-0.0051922	-0.0006976	-0.0046367
