15
Properties=species:S:1:pos:R:3:molID:I:1:forces_dft:R:3 Nmols=1 Comp=VC(1) energy_dft=-9407.431238402467 pbc="F F F"
O	0.1365799	-0.5387398	-1.5570994	0	0.0012382	-0.0035566	0.0166527
C	-0.4186598	-0.1765599	-0.4939498	0	0.0283800	-0.0059666	0.0202436
C	0.9639096	-0.5527398	0.9624296	0	0.0027796	0.0092022	0.0081058
C	1.8759692	0.3068199	0.4044398	0	-0.0074099	-0.0006365	0.0006620
O	2.3442991	0.1635699	-0.7940897	0	-0.0041196	-0.0024385	-0.0027576
C	-1.7201293	-0.4932798	0.1336299	0	0.0051469	0.0074709	-0.0040014
C	-1.2902595	0.9671096	-0.1321299	0	-0.0035095	-0.0049186	-0.0096737
H	1.5704394	-0.2707799	-1.3397695	0	-0.0025538	0.0035102	-0.0022964
H	0.6047598	-0.3322199	1.9592392	0	-0.0034079	0.0005361	-0.0007747
H	0.9389397	-1.5882594	0.6523797	0	-0.0041428	-0.0053899	-0.0079359
H	2.1592192	1.2341195	0.9032196	0	-0.0007619	-0.0013595	-0.0056201
H	-1.7959093	-0.8072097	1.1652496	0	-0.0060601	-0.0021314	0.0007962
H	-2.4551290	-0.9322496	-0.5305898	0	-0.0076466	0.0009335	-0.0019967
H	-1.7555093	1.4909994	-0.9583996	0	-0.0034681	0.0034632	-0.0028049
H	-1.0826496	1.5763794	0.7366997	0	-0.0090811	0.0037951	0.0000253
