14
Properties=species:S:1:pos:R:3:molID:I:1:forces_dft:R:3 Nmols=1 Comp=VC(1) energy_dft=-8370.698237528086 pbc="F F F"
C	-1.1730695	-1.0478996	-0.0586700	0	0.0174484	-0.0058294	0.0118746
C	-0.9867796	0.1508499	-0.7459797	0	0.0120261	0.0158417	0.0048816
C	0.8827796	1.1751596	0.1898899	0	-0.0102893	-0.0134887	-0.0028163
O	0.4025199	1.3947694	1.4314895	0	0.0048183	-0.0028700	-0.0062347
C	1.4703694	-0.0139100	-0.1444000	0	-0.0017406	-0.0051403	-0.0037061
O	1.2856495	-1.0392796	0.6222098	0	0.0072907	0.0033151	0.0184429
H	-1.2333595	-1.9591292	-0.6475398	0	-0.0093262	-0.0010905	-0.0018040
H	-1.8070193	-1.0315896	0.8223397	0	-0.0071470	0.0036111	0.0015458
H	0.0682500	-1.2464095	0.4402698	0	0.0092413	0.0020570	-0.0011462
H	-1.4120895	1.0729496	-0.3725599	0	-0.0029691	0.0037623	0.0006250
H	-0.7359097	0.1513400	-1.7995093	0	0.0000378	0.0018570	-0.0061910
H	0.9730296	2.0696892	-0.4120099	0	-0.0017856	0.0009532	-0.0013622
H	0.5346898	0.5728498	1.9249192	0	-0.0026080	0.0017289	0.0049718
H	1.9358292	-0.1282600	-1.1245795	0	-0.0013452	-0.0021166	-0.0018568
