12
Properties=species:S:1:pos:R:3:molID:I:1:forces_dft:R:3 Nmols=1 Comp=VC(1) energy_dft=-8232.089455277519 pbc="F F F"
C	1.5056494	0.1952499	-0.1495499	0	0.0052776	0.0140512	0.0111680
N	0.6466697	-0.8135097	0.0777600	0	-0.0005248	0.0125732	-0.0053939
C	-1.3144795	-0.2988299	0.1382999	0	0.0166442	-0.0106009	0.0053540
N	-1.9730192	-1.1576895	0.7111997	0	-0.0091478	0.0016107	-0.0001582
C	-1.2167295	0.8897596	-0.5495998	0	0.0053502	0.0001052	-0.0011581
O	-0.3925498	1.7989293	-0.1693199	0	-0.0056186	0.0099973	0.0002220
H	1.9182193	0.2556999	-1.1566695	0	-0.0009712	-0.0046771	-0.0025637
H	2.1546391	0.5328998	0.6586597	0	-0.0041636	-0.0020897	0.0010305
H	0.6810097	1.2892495	-0.1641399	0	-0.0060092	0.0004353	0.0001189
H	0.5930398	-0.9535596	1.0859996	0	-0.0031448	0.0015264	0.0066484
H	-1.4750894	-2.0390792	0.8325797	0	-0.0009687	-0.0021489	0.0016235
H	-1.5399194	0.8525097	-1.5953194	0	-0.0083532	-0.0043695	-0.0040907
