14
Properties=species:S:1:pos:R:3:molID:I:1:forces_dft:R:3 Nmols=1 Comp=VC(1) energy_dft=-8833.371915549611 pbc="F F F"
C	-1.9573992	-0.4116599	0.4393998	0	0.0102693	0.0024123	0.0084612
C	-1.0167496	0.0976200	-0.6135798	0	0.0033609	0.0007370	0.0043648
C	-0.3863599	1.2831495	-0.5287998	0	0.0070425	0.0016683	-0.0021500
N	0.4446798	2.1230992	-0.3907799	0	-0.0018158	-0.0089600	0.0058214
C	1.1394395	-0.8891397	0.2656299	0	-0.0137761	-0.0038991	0.0008960
O	0.6933597	-1.8324593	0.7542797	0	0.0080541	-0.0188038	-0.0130398
C	2.0715292	0.0595800	-0.0785200	0	-0.0019541	0.0207525	-0.0058252
H	-1.8432893	0.1389300	1.3736195	0	-0.0021466	0.0011264	0.0032962
H	-3.0007488	-0.3315599	0.1258599	0	-0.0051958	0.0036822	0.0019018
H	-1.7557193	-1.4663794	0.6470497	0	-0.0032387	-0.0056111	0.0023080
H	-1.1087096	-0.3150699	-1.6141793	0	-0.0011453	-0.0059596	-0.0026097
H	2.8869988	0.1171900	0.6362997	0	0.0013605	0.0012847	0.0004183
H	1.3891595	1.2832295	-0.1205000	0	0.0050750	-0.0073307	-0.0042146
H	2.3665891	0.0027200	-1.1228496	0	-0.0014889	-0.0065101	-0.0040590
