19
Properties=species:S:1:pos:R:3:molID:I:1:forces_dft:R:3 Nmols=1 Comp=VC(1) energy_dft=-8463.306908790404 pbc="F F F"
C	-2.5878190	-0.9588396	0.4476298	0	0.0024986	-0.0001858	-0.0027917
C	-1.2754395	-0.8481096	-0.3263299	0	-0.0023382	0.0032036	0.0041527
C	-0.3287999	0.1471299	0.2802699	0	0.0208536	0.0016367	0.0035358
C	1.7173893	-0.3970899	-0.3077899	0	-0.0012895	-0.0000152	0.0121901
C	2.6034390	0.6258398	0.0167000	0	0.0075360	0.0264457	-0.0042240
C	-0.1693699	1.4141294	-0.2187199	0	0.0021401	-0.0072948	0.0008883
O	0.6640397	2.2471491	0.2988999	0	0.0079336	-0.0068309	0.0097165
H	-3.2459087	-1.7082793	0.0039000	0	-0.0036645	-0.0012035	-0.0048972
H	-2.4071091	-1.2446795	1.4863294	0	-0.0038211	-0.0007009	0.0029070
H	-3.1167888	-0.0040500	0.4553098	0	-0.0043628	0.0002108	0.0029835
H	-0.7992097	-1.8335793	-0.3668098	0	-0.0021103	-0.0023569	-0.0002890
H	-1.4792494	-0.5678698	-1.3644695	0	-0.0045354	0.0016408	-0.0056981
H	-0.0634100	-0.0016400	1.3223295	0	-0.0004928	-0.0020333	0.0026437
H	1.4675094	-0.5982798	-1.3424295	0	-0.0061589	0.0018494	-0.0056955
H	1.5904494	-1.2453895	0.3519399	0	-0.0036020	-0.0037522	0.0009093
H	3.1551287	0.5527698	0.9483696	0	-0.0025922	-0.0003559	0.0017306
H	1.6800493	1.6404193	0.3004999	0	0.0001628	-0.0057325	-0.0051138
H	3.1166288	1.1344395	-0.7931697	0	-0.0041117	0.0019222	-0.0016956
H	-0.6045397	1.6657793	-1.1943395	0	-0.0056613	-0.0006941	-0.0014303
