15
Properties=species:S:1:pos:R:3:molID:I:1:forces_dft:R:3 Nmols=1 Comp=VC(1) energy_dft=-6819.201730808897 pbc="F F F"
C	-0.6810797	1.5636994	-0.1896900	0	-0.0043496	-0.0051129	0.0055437
C	-0.7609397	0.0976500	0.1259399	0	0.0022448	0.0077644	0.0106466
C	-0.8159997	-0.8527797	-0.8810396	0	0.0401961	-0.0086651	-0.0152519
C	1.3772695	-0.0542600	1.1971895	0	-0.0056813	-0.0016754	0.0070741
C	1.7609593	-0.9440296	0.2665999	0	-0.0042151	-0.0017577	-0.0065936
N	1.6902693	-1.6608893	-0.6788297	0	-0.0009983	-0.0020543	-0.0002893
H	-0.3952299	2.1627291	0.6738098	0	-0.0003943	-0.0001980	-0.0005937
H	-1.6607594	1.9150492	-0.5280998	0	-0.0066686	0.0014154	0.0013713
H	0.0292000	1.7547393	-0.9962196	0	-0.0014677	-0.0014913	-0.0021293
H	-1.1535896	-0.1642499	1.1008296	0	-0.0002604	0.0018250	0.0048317
H	-0.8672497	-0.4995198	-1.9082393	0	-0.0039950	-0.0008900	-0.0011932
H	-1.3328995	-1.7864593	-0.6826098	0	-0.0048431	-0.0010942	0.0006673
H	0.4880798	-1.3951594	-0.9599696	0	-0.0148149	0.0074089	0.0020757
H	1.1480396	-0.4155598	2.1917292	0	-0.0036653	-0.0017397	0.0016506
H	1.7344793	0.9639696	1.1144596	0	0.0014391	0.0012911	-0.0031332
