13
Properties=species:S:1:pos:R:3:molID:I:1:forces_dft:R:3 Nmols=1 Comp=VC(1) energy_dft=-7797.384630408018 pbc="F F F"
C	-1.4630394	-0.5843798	0.3368399	0	-0.0077776	0.0003418	-0.0030420
C	-0.3197099	-0.5618298	-0.6418597	0	0.0074350	0.0059973	0.0075893
O	-0.2928499	0.3208099	-1.5464594	0	0.0181404	0.0363151	0.0103732
C	1.3350495	-0.1475800	0.8056897	0	0.0070834	-0.0087666	0.0021597
C	1.4277594	1.0697996	0.2243099	0	0.0024803	0.0096592	-0.0062534
N	1.2188895	1.9534192	-0.5347798	0	-0.0071433	-0.0127124	-0.0129986
H	-2.3662591	-0.8602497	-0.2144899	0	-0.0056181	-0.0100534	0.0016208
H	-1.3072895	-1.3116095	1.1329495	0	0.0009454	-0.0030993	0.0011734
H	-1.6254194	0.4065699	0.7623397	0	-0.0017812	0.0009758	-0.0011839
H	0.1587699	-1.5221294	-0.8620897	0	-0.0025240	-0.0061266	-0.0013517
H	0.3869998	1.3678595	-1.1957695	0	-0.0184522	-0.0197683	-0.0097846
H	2.1276892	-0.8586896	0.6076898	0	-0.0016102	-0.0021507	-0.0013127
H	0.8528496	-0.2144099	1.7724293	0	-0.0038406	0.0017665	-0.0001884
