12
Properties=species:S:1:pos:R:3:molID:I:1:forces_dft:R:3 Nmols=1 Comp=VC(1) energy_dft=-9348.784368816450 pbc="F F F"
O	-1.4046094	0.7838597	-0.6164898	0	0.0025518	0.0029988	-0.0082848
C	-1.2781595	-0.2503099	0.1212800	0	0.0202324	-0.0037843	0.0049449
C	0.8130597	-0.7232897	0.0212600	0	0.0019629	0.0001917	0.0021643
O	0.9780296	-0.8272597	-1.3105495	0	-0.0022081	-0.0123411	-0.0080631
C	0.8423897	0.4883998	0.6762197	0	-0.0057384	-0.0041079	0.0008937
O	0.7004897	1.5893494	0.0142900	0	-0.0197886	0.0179936	0.0058389
H	-0.4175898	1.4584994	-0.3827899	0	0.0020569	0.0016501	-0.0005127
H	-1.4021695	-1.2313595	-0.3434099	0	0.0012466	-0.0049067	-0.0011618
H	-1.5435394	-0.2008699	1.1833995	0	-0.0038998	-0.0058175	0.0048020
H	0.9227496	-1.6607294	0.5507698	0	-0.0057418	-0.0021170	0.0005912
H	0.9752296	0.0650900	-1.6813593	0	-0.0113329	0.0017137	-0.0034755
H	0.8503297	0.5000198	1.7678593	0	-0.0063166	-0.0018929	0.0037061
