11
Properties=species:S:1:pos:R:3:molID:I:1:forces_dft:R:3 Nmols=1 Comp=VC(1) energy_dft=-6185.431856003149 pbc="F F F"
C	1.0853196	-0.5963298	-0.2434199	0	0.0080978	0.0069759	0.0078892
N	0.7384597	0.5529698	0.3324399	0	0.0079803	0.0036491	-0.0025907
C	-1.2837795	0.9713696	0.1981799	0	0.0026818	0.0033145	-0.0036831
C	-1.6485793	-0.2258799	-0.3135099	0	0.0037542	-0.0044135	-0.0022673
N	-1.3619695	-1.3008095	-0.7484397	0	-0.0051033	0.0036611	0.0016748
H	-0.1544699	-1.2729795	-0.6146398	0	-0.0006076	0.0031959	-0.0004818
H	1.4247494	-1.4321895	0.3685699	0	-0.0035940	-0.0050046	0.0004492
H	1.4948494	-0.5336298	-1.2502695	0	0.0000814	-0.0027713	-0.0045044
H	0.6763698	0.4218899	1.3388195	0	-0.0024531	-0.0060054	0.0077887
H	-1.5222694	1.1881395	1.2323895	0	-0.0059768	-0.0019806	0.0045981
H	-1.2656395	1.8200593	-0.4723798	0	-0.0034534	0.0009360	-0.0006040
