16
Properties=species:S:1:pos:R:3:molID:I:1:forces_dft:R:3 Nmols=1 Comp=VC(1) energy_dft=-9877.548848423530 pbc="F F F"
C	-1.3757294	1.3291895	-0.3910898	0	0.0071632	-0.0002837	0.0082055
C	-0.5289798	0.4739598	0.4887998	0	0.0197128	0.0080538	0.0001161
C	-0.7196797	-0.9030497	0.5329098	0	0.0169954	-0.0001704	0.0059566
O	-0.2648599	-1.5529594	1.6885194	0	0.0038910	-0.0024098	-0.0003889
N	1.3269295	0.7732297	-0.4721098	0	-0.0021861	0.0050796	0.0003341
C	1.8786993	-0.3780299	-0.6935497	0	-0.0024680	0.0012865	0.0088738
O	1.1820195	-1.3671595	-1.1101796	0	-0.0084410	-0.0022118	0.0001979
H	-0.8753797	2.2607491	-0.6433097	0	-0.0046151	0.0009829	-0.0020891
H	-2.3055191	1.5604094	0.1375499	0	-0.0055316	0.0006895	-0.0051897
H	-1.6302493	0.8092997	-1.3149995	0	-0.0063485	0.0016339	-0.0036277
H	-0.0735799	0.9391596	1.3551195	0	-0.0047912	-0.0040420	0.0028237
H	-1.6552494	-1.2825095	0.1154100	0	-0.0065373	0.0002366	-0.0022815
H	0.1376900	-1.2053895	-0.4774398	0	0.0037464	-0.0042035	-0.0040330
H	0.1972499	-2.3517691	1.4279594	0	-0.0049053	-0.0036767	0.0001939
H	1.9665792	1.4181994	-0.0218600	0	-0.0026252	-0.0001610	-0.0009672
H	2.9412388	-0.5674398	-0.4833298	0	0.0016875	-0.0010362	-0.0031419
