14
Properties=species:S:1:pos:R:3:molID:I:1:forces_dft:R:3 Nmols=1 Comp=VC(1) energy_dft=-9845.662654587688 pbc="F F F"
C	-1.0547996	-1.1769395	-0.1009799	0	0.0005924	0.0010160	0.0040308
C	-0.7905397	0.2875899	-0.3819298	0	0.0257830	-0.0081654	0.0030390
C	-0.6366697	1.2336395	0.6132997	0	0.0072514	0.0042485	-0.0052153
O	-0.0188800	1.0000196	1.7236193	0	0.0024484	0.0086523	0.0190210
C	1.1541995	0.1621299	-0.8059797	0	0.0125871	-0.0009245	-0.0063165
O	1.2773195	0.2624099	-1.9790592	0	-0.0093764	0.0016973	0.0031345
N	1.6814993	-0.0967200	0.3221699	0	-0.0076484	0.0036955	-0.0020169
H	-0.6315597	-1.4900994	0.8511697	0	-0.0017553	0.0006348	0.0006053
H	-2.1337391	-1.3456595	-0.0700300	0	-0.0061150	-0.0026014	0.0036550
H	-0.6437597	-1.8135493	-0.8851297	0	0.0001899	0.0005166	-0.0036181
H	-1.2346195	0.6688397	-1.2948495	0	-0.0048681	-0.0027294	-0.0008517
H	-0.9349097	2.2704891	0.4455498	0	-0.0095198	0.0020168	0.0023396
H	2.6704590	-0.2985899	0.2876299	0	0.0024803	-0.0016615	-0.0048735
H	0.7765297	0.3528999	1.4074594	0	-0.0067827	0.0020514	0.0000987
