12
Properties=species:S:1:pos:R:3:molID:I:1:forces_dft:R:3 Nmols=1 Comp=VC(1) energy_dft=-7221.168939149654 pbc="F F F"
N	1.0563496	1.6105394	-1.0316996	0	0.0038659	0.0020077	-0.0019456
C	1.4838094	0.4936298	-1.0817096	0	-0.0049775	0.0071420	-0.0056157
C	1.5050494	-0.8100297	-0.7704497	0	-0.0009969	-0.0034248	-0.0034433
N	-0.2777299	-0.6455697	0.4438798	0	0.0009635	-0.0056978	0.0007786
C	-1.4199194	-0.2625799	-0.4283698	0	0.0026362	0.0059363	0.0028027
C	-0.7216897	0.5840198	0.5332498	0	0.0081831	0.0123365	-0.0070355
H	1.1535696	-1.5339794	-1.4934994	0	-0.0011362	-0.0042453	-0.0037729
H	2.2036991	-1.1536496	-0.0201600	0	-0.0002247	0.0018147	0.0040373
H	-2.3570491	-0.7659997	-0.2112399	0	-0.0043457	-0.0011063	0.0019962
H	-1.2212195	-0.0907599	-1.4839194	0	0.0014668	0.0036704	-0.0029270
H	0.1182499	1.4706894	-0.3103599	0	-0.0051888	-0.0031610	0.0018284
H	-0.8729896	1.1890696	1.4177694	0	0.0013482	0.0019608	0.0000936
