15
Properties=species:S:1:pos:R:3:molID:I:1:forces_dft:R:3 Nmols=1 Comp=VC(1) energy_dft=-10418.927495631984 pbc="F F F"
C	-0.8877697	0.6009898	-1.4837194	0	-0.0049374	-0.0034057	0.0075609
C	-0.6380498	-0.4951598	-0.4863498	0	0.0029533	0.0110715	0.0078889
O	0.2054499	-1.4257294	-0.7550297	0	0.0108654	0.0052265	-0.0055928
C	0.0736900	0.2330299	1.4375894	0	-0.0024611	0.0050035	0.0119746
O	0.0286300	-0.9208296	2.1345391	0	-0.0044221	0.0077810	-0.0015503
C	1.1456495	0.5773098	0.6463498	0	0.0010047	-0.0016035	-0.0067002
O	1.9969692	-0.3117099	0.2663399	0	-0.0057418	-0.0192913	0.0018222
H	-1.5523394	0.2051599	-2.2577591	0	-0.0013748	-0.0027602	-0.0037400
H	-1.3768394	1.4617894	-1.0266196	0	0.0015186	0.0027913	-0.0013302
H	0.0385000	0.9112996	-1.9660993	0	-0.0029192	0.0034848	-0.0044380
H	-1.4965294	-0.7902697	0.1234700	0	-0.0037848	-0.0030714	-0.0001313
H	1.2592595	-1.0340196	-0.4088398	0	0.0005249	0.0011613	-0.0030464
H	-0.6557497	0.9654996	1.7580893	0	-0.0026013	0.0014690	-0.0044318
H	0.7809397	-1.4607794	1.8590293	0	-0.0039186	-0.0012364	-0.0084398
H	1.1805695	1.5853094	0.2262699	0	-0.0024334	-0.0010786	-0.0051997
