13
Properties=species:S:1:pos:R:3:molID:I:1:forces_dft:R:3 Nmols=1 Comp=VC(1) energy_dft=-7796.201842369956 pbc="F F F"
C	-1.6031693	-0.7608697	0.0220500	0	-0.0006432	0.0027179	0.0044625
C	-0.7188397	0.2472499	-0.6819897	0	0.0160848	-0.0045049	-0.0046852
O	-0.1461900	1.1601896	0.0084600	0	0.0364838	-0.0043257	0.0129969
C	1.7217493	0.9206897	0.4299499	0	0.0005697	0.0054075	0.0049136
C	1.9403392	-0.1794799	-0.3305799	0	-0.0034957	-0.0034401	-0.0071068
N	1.4684094	-0.9907696	-1.0710296	0	-0.0084282	0.0028219	0.0010001
H	-2.5127990	-0.2722799	0.3795499	0	-0.0078725	-0.0033452	0.0010975
H	-1.8874193	-1.5739594	-0.6472997	0	-0.0025245	-0.0051329	0.0015549
H	-1.0861596	-1.1811495	0.8863097	0	-0.0053395	0.0004535	0.0023443
H	-1.0031696	0.5317998	-1.7063693	0	-0.0033481	-0.0042797	-0.0043634
H	0.2978899	-0.6037298	-1.1371596	0	-0.0070547	0.0031851	-0.0027212
H	1.6580693	0.7982097	1.5032694	0	-0.0079263	0.0001814	0.0044805
H	2.0842692	1.8744293	0.0705400	0	-0.0068962	0.0031044	-0.0022530
