13
Properties=species:S:1:pos:R:3:molID:I:1:forces_dft:R:3 Nmols=1 Comp=VC(1) energy_dft=-9271.023339336376 pbc="F F F"
N	-1.1884295	0.9690796	0.7400497	0	0.0055051	0.0049954	-0.0005605
C	-1.5492894	-0.2735199	0.7003497	0	0.0025032	-0.0009662	0.0056155
O	-1.0554296	-1.1306496	-0.0987999	0	0.0038125	0.0109647	0.0001475
C	0.2486999	-0.8216597	-0.9824196	0	0.0083831	0.0003031	0.0067392
C	0.9782896	0.3918699	-0.6482498	0	-0.0100683	0.0062142	-0.0013604
C	2.0574892	0.2783399	0.2652799	0	0.0058736	0.0009178	0.0002182
N	2.8884189	0.1921599	1.0633596	0	-0.0043178	0.0007126	-0.0024347
H	-1.5574194	1.5543894	1.4709494	0	-0.0037383	0.0021981	0.0005806
H	-2.3210291	-0.6599997	1.3704195	0	-0.0059500	0.0016253	-0.0020794
H	-0.2025999	-0.8116897	-1.9707492	0	-0.0019881	-0.0013961	-0.0005802
H	0.7487397	-1.7679093	-0.7921097	0	0.0001713	-0.0020037	0.0068523
H	1.1243396	1.0938295	-1.4610194	0	0.0022834	0.0009781	-0.0000465
H	-0.2066799	1.0782296	0.1773099	0	0.0016821	-0.0045023	0.0017462
