18
Properties=species:S:1:pos:R:3:molID:I:1:forces_dft:R:3 Nmols=1 Comp=VC(1) energy_dft=-8900.393570145219 pbc="F F F"
C	-1.8456993	-0.3997898	-0.1412999	0	0.0031140	-0.0018837	0.0059783
C	-0.7384497	0.5138698	-0.6203498	0	0.0054951	-0.0001953	-0.0022061
C	0.2511299	0.9755196	0.2535099	0	0.0199516	0.0058619	-0.0053724
C	0.2005599	0.7645297	1.7329193	0	-0.0000529	0.0003218	-0.0030681
N	1.9606492	-0.2190499	-0.0663100	0	-0.0024646	0.0116239	-0.0037681
C	1.6715593	-1.2082895	-0.8538397	0	-0.0078033	-0.0001838	0.0057831
O	0.8901496	-1.0566096	-1.8501593	0	-0.0164405	0.0199581	0.0195206
H	-1.4445394	-1.3074395	0.3187099	0	-0.0055107	-0.0040900	0.0009760
H	-2.5056190	0.0753100	0.5913497	0	-0.0005298	-0.0020840	-0.0014731
H	-2.4631890	-0.7205497	-0.9807696	0	-0.0049712	-0.0053337	-0.0023207
H	0.0690200	-0.2446099	-1.4007795	0	0.0094345	-0.0050185	-0.0032415
H	-0.9977596	1.2166695	-1.4106395	0	-0.0008096	-0.0033916	0.0003480
H	0.8187497	1.8377193	-0.0696800	0	-0.0017739	-0.0004395	-0.0097631
H	-0.5698298	1.4297394	2.1374791	0	-0.0062520	-0.0013882	-0.0012265
H	-0.0825900	-0.2550699	1.9924792	0	-0.0062298	-0.0035339	0.0009151
H	1.1450295	1.0104496	2.2153791	0	0.0003962	0.0003928	-0.0020246
H	2.4807590	-0.5258698	0.7473497	0	-0.0019588	-0.0067433	0.0011837
H	2.0512292	-2.2250291	-0.6668197	0	0.0009046	-0.0061513	0.0001142
