14
Properties=species:S:1:pos:R:3:molID:I:1:forces_dft:R:3 Nmols=1 Comp=VC(1) energy_dft=-8831.786231254062 pbc="F F F"
C	-1.9585992	-0.0928800	-0.1859399	0	-0.0034942	0.0050001	-0.0028439
C	-0.8867796	-0.7689397	0.3326199	0	0.0108415	-0.0031650	0.0016356
C	1.1017896	0.1220000	-0.2497499	0	0.0069291	-0.0010527	0.0044915
C	2.2016192	-0.2035699	0.6254497	0	-0.0018890	-0.0034804	-0.0049786
O	1.9794092	-0.8594797	-0.6350098	0	-0.0054347	-0.0090972	-0.0062375
C	0.5825598	1.1780195	-0.9280496	0	-0.0123747	0.0063006	-0.0038346
N	-0.3889899	1.7769893	-1.2998295	0	0.0044400	-0.0005385	-0.0126687
H	-1.2624095	1.1337295	-0.9331796	0	0.0007295	0.0042500	0.0033028
H	-2.5540990	0.5528798	0.4499698	0	-0.0030566	0.0044414	0.0039629
H	-2.4379990	-0.4512098	-1.0903596	0	-0.0012525	0.0014230	-0.0007089
H	-0.6249198	-0.6467198	1.3767994	0	0.0000585	-0.0016119	0.0023205
H	-0.5115698	-1.6658394	-0.1450300	0	-0.0006099	-0.0031519	-0.0012339
H	3.0807988	0.4309698	0.6563398	0	0.0013758	-0.0010428	0.0004560
H	2.0108892	-0.8169897	1.5007094	0	-0.0025920	-0.0038887	-0.0000781
