14
Properties=species:S:1:pos:R:3:molID:I:1:forces_dft:R:3 Nmols=1 Comp=VC(1) energy_dft=-7359.492178574375 pbc="F F F"
C	-1.5968494	-0.3054599	-0.6528897	0	0.0017325	0.0011065	0.0026844
C	-0.6616097	-0.5083898	0.5180198	0	0.0221428	0.0287011	-0.0059101
O	0.1189199	-1.5191694	0.4838398	0	0.0441254	0.0006436	-0.0042494
C	0.3718299	1.2663995	0.4797798	0	-0.0105392	-0.0008023	0.0040046
C	1.5231694	0.7038497	0.0311000	0	0.0004022	-0.0062580	0.0059084
C	2.2163591	-0.2959199	-0.2581299	0	-0.0087988	-0.0105210	0.0035817
H	-1.0325096	-0.2608299	-1.5860294	0	-0.0070852	-0.0005715	-0.0037191
H	-2.2616391	-1.1706595	-0.7099297	0	-0.0088722	-0.0029878	-0.0076281
H	-2.2046291	0.5939697	-0.5491898	0	-0.0060849	-0.0001243	-0.0070584
H	-1.0653996	-0.2470399	1.5023794	0	-0.0052935	-0.0004145	0.0016555
H	1.2667295	-1.1369795	0.0284700	0	-0.0138032	-0.0020791	0.0006900
H	-0.2294399	1.8439393	-0.2130099	0	-0.0031227	-0.0023525	0.0006988
H	0.3559999	1.6236593	1.5045494	0	-0.0078878	-0.0029061	0.0050388
H	3.1948987	-0.5933298	-0.5811698	0	-0.0024297	-0.0111904	-0.0011046
