17
Properties=species:S:1:pos:R:3:molID:I:1:forces_dft:R:3 Nmols=1 Comp=VC(1) energy_dft=-9441.639082524665 pbc="F F F"
C	-2.4449390	-0.4854598	-0.3666899	0	-0.0040264	0.0122417	-0.0001276
C	-1.1529495	0.2813699	-0.6496498	0	0.0067084	-0.0062844	0.0025070
C	-0.0144800	-0.3433499	0.1260400	0	0.0432706	0.0302579	-0.0024948
O	0.4796198	-1.4412394	-0.2865399	0	0.0657572	0.0085039	0.0044627
C	1.4768594	1.0219896	-0.2787999	0	-0.0159000	-0.0083767	0.0062860
C	2.4121391	0.3291599	0.4607898	0	0.0022277	-0.0018292	0.0063629
O	2.7345189	-0.8865496	0.2066299	0	-0.0051276	-0.0218613	-0.0002075
H	-3.2812887	-0.0359300	-0.9041497	0	-0.0101797	-0.0000964	-0.0039559
H	-2.3540791	-1.5259594	-0.6798097	0	-0.0113512	-0.0049545	0.0022602
H	-2.6895589	-0.4725598	0.6980997	0	-0.0080503	0.0016214	0.0022996
H	-0.9190596	0.2367399	-1.7148593	0	-0.0102130	-0.0103676	-0.0055712
H	-1.2707395	1.3287895	-0.3649099	0	-0.0083557	-0.0001561	-0.0022875
H	-0.0861600	-0.1830099	1.2139395	0	-0.0044484	0.0048968	0.0032247
H	1.7739793	-1.3508894	-0.1235000	0	-0.0291674	-0.0040477	-0.0000897
H	1.2278795	2.0307492	0.0252900	0	-0.0055739	0.0003733	0.0005931
H	1.3628994	0.7897597	-1.3290895	0	-0.0080686	-0.0072785	-0.0031661
H	2.8084289	0.7485197	1.3899194	0	-0.0059696	-0.0037270	0.0006292
