11
Properties=species:S:1:pos:R:3:molID:I:1:forces_dft:R:3 Nmols=1 Comp=VC(1) energy_dft=-8672.068596670866 pbc="F F F"
N	-1.9351092	-0.4579698	0.2065199	0	0.0024399	0.0071038	-0.0040166
C	-0.5957597	-0.3194699	0.0453700	0	-0.0002709	0.0019898	0.0035035
O	0.0259500	-1.4100194	-0.2767999	0	0.0083324	0.0028956	-0.0007800
N	0.0526000	0.7957797	0.2156199	0	-0.0018264	0.0137196	0.0003941
C	1.8790393	0.6872097	0.0857500	0	0.0026405	-0.0099830	-0.0075161
N	2.3255491	-0.3756398	-0.1847399	0	-0.0006247	0.0046234	0.0029804
H	-2.3401291	-1.3251595	-0.0983400	0	-0.0063157	-0.0043439	0.0003896
H	-2.5226090	0.3536199	0.2329599	0	-0.0027882	0.0028457	0.0023347
H	-0.4833098	1.5970794	0.5125198	0	-0.0028204	0.0025373	0.0040784
H	2.1325892	1.7143693	0.3044899	0	0.0006321	0.0057281	0.0003145
H	1.0594896	-1.1790595	-0.2940199	0	0.0027087	0.0001986	0.0037843
