13
Properties=species:S:1:pos:R:3:molID:I:1:forces_dft:R:3 Nmols=1 Comp=VC(1) energy_dft=-9373.639453055888 pbc="F F F"
C	-1.3644194	-1.2849695	-0.0273000	0	0.0058592	0.0032169	-0.0009376
C	-0.5682198	-0.2530499	0.7044297	0	0.0228444	-0.0035928	-0.0127899
O	1.1496595	-0.7615697	0.1738099	0	0.0202472	0.0137161	0.0153233
C	1.8778492	0.0769400	-0.3820699	0	0.0007467	-0.0033569	0.0083871
O	2.9749689	0.1127799	-0.8581297	0	-0.0160562	0.0001760	0.0000856
C	-0.6657698	1.0826196	0.3710599	0	-0.0029040	0.0057272	-0.0070274
C	0.0895700	1.9100793	-0.1788399	0	0.0017572	-0.0092020	-0.0033676
H	-1.4175695	-1.0550496	-1.0905896	0	-0.0069263	-0.0020039	-0.0069346
H	-2.3793491	-1.2923195	0.3767498	0	-0.0085042	0.0018897	0.0001650
H	-0.9279397	-2.2716391	0.1160399	0	-0.0084821	-0.0053921	-0.0034178
H	-0.3748398	-0.4655898	1.7515893	0	-0.0054744	-0.0004508	0.0020176
H	1.2493095	1.1726995	-0.4428898	0	-0.0025892	0.0032352	0.0070085
H	0.2939599	2.8985289	-0.5442098	0	-0.0034916	0.0009515	-0.0048952
