11
Properties=species:S:1:pos:R:3:molID:I:1:forces_dft:R:3 Nmols=1 Comp=VC(1) energy_dft=-7763.300036683983 pbc="F F F"
N	-0.9663096	1.1009996	0.2366899	0	0.0080996	0.0022108	-0.0009979
C	-1.3504495	-0.1013699	0.2137099	0	-0.0005947	-0.0001882	-0.0020860
O	-2.2615891	-0.8628697	0.3076599	0	0.0078503	0.0008736	-0.0054194
C	0.2088199	-1.2628495	-0.1230900	0	0.0045675	0.0068249	0.0024446
C	1.2060495	-0.3468099	-0.2212999	0	-0.0018828	-0.0026161	-0.0021121
C	1.6423093	0.8279297	-0.2068599	0	-0.0096597	0.0057467	0.0000095
H	-1.6744693	1.7972393	0.4022398	0	-0.0050252	-0.0023649	0.0012498
H	0.4762098	1.2671095	0.0134300	0	0.0007257	-0.0016479	-0.0002672
H	0.1596700	-1.8728993	0.7723597	0	-0.0036112	0.0012922	0.0029324
H	-0.1364899	-1.7468893	-1.0301796	0	-0.0039241	-0.0017937	-0.0010420
H	2.5494290	1.3910294	-0.3095099	0	-0.0025811	-0.0021860	0.0038427
