15
Properties=species:S:1:pos:R:3:molID:I:1:forces_dft:R:3 Nmols=1 Comp=VC(1) energy_dft=-8395.528869755759 pbc="F F F"
C	2.3768191	0.8008897	0.4621898	0	-0.0117307	0.0025099	0.0049411
C	1.0696396	0.1096300	0.4937398	0	0.0010420	0.0068228	-0.0017514
C	0.4663098	-0.9761396	0.6735997	0	-0.0027403	-0.0043703	-0.0078415
C	-0.6898897	-1.6905593	0.6727598	0	0.0069308	0.0176104	0.0011669
C	-2.0610792	-0.2101099	0.3151499	0	-0.0071764	-0.0118636	0.0141294
O	-3.0191888	-0.5484298	0.9084396	0	0.0190848	-0.0078498	-0.0109351
C	-1.4700494	0.7713097	-0.4475298	0	0.0078139	0.0064223	-0.0048470
H	2.4059691	1.5974594	1.2070595	0	-0.0006642	0.0004154	0.0021203
H	2.5391690	1.2601095	-0.5142898	0	-0.0008079	0.0014104	-0.0032712
H	3.1946087	0.1092600	0.6609297	0	-0.0014491	-0.0043538	0.0027203
H	-1.1076196	-2.0101592	1.6206594	0	-0.0055400	-0.0014997	-0.0012763
H	-0.8786297	-2.3682691	-0.1569999	0	-0.0033860	-0.0022544	-0.0022547
H	-0.0181000	0.7112897	0.1598599	0	0.0027638	-0.0062494	-0.0059286
H	-1.0838896	0.4743398	-1.4145994	0	-0.0024525	-0.0012173	-0.0013793
H	-1.9278292	1.7490693	-0.3740898	0	-0.0049249	-0.0007911	-0.0037057
