12
Properties=species:S:1:pos:R:3:molID:I:1:forces_dft:R:3 Nmols=1 Comp=VC(1) energy_dft=-8695.405900121337 pbc="F F F"
C	-1.6080794	0.0044800	0.1780999	0	0.0015331	0.0174750	0.0092469
N	-0.6733197	-0.9397596	0.0350200	0	0.0117524	0.0021476	0.0097106
C	1.2947095	-0.1992999	0.3611399	0	0.0037426	-0.0009090	-0.0075998
C	1.9669092	-0.5885098	-0.8400096	0	-0.0025732	-0.0078724	-0.0012114
N	2.4572590	-0.9446196	-1.8155893	0	-0.0009793	0.0006430	0.0074481
C	0.9008296	1.0918696	0.5331598	0	-0.0054845	0.0048374	-0.0063173
N	0.0732900	1.9315492	0.6379097	0	0.0103871	-0.0066687	0.0036619
H	-2.1495491	0.3575799	-0.7011997	0	-0.0054131	0.0045234	-0.0041623
H	-0.9556196	1.1904795	0.4062298	0	-0.0105183	-0.0049495	-0.0000774
H	-2.1683792	-0.0219200	1.1123396	0	-0.0011271	-0.0011022	0.0024687
H	-0.4598098	-1.0745096	-0.9514596	0	0.0022835	0.0009605	-0.0064214
H	1.5212794	-0.7768597	1.2483395	0	-0.0017889	-0.0041432	0.0019037
