11
Properties=species:S:1:pos:R:3:molID:I:1:forces_dft:R:3 Nmols=1 Comp=VC(1) energy_dft=-7300.080902517579 pbc="F F F"
C	-1.2298895	0.6673597	0.3806299	0	0.0179067	0.0056907	-0.0031333
O	-1.0989195	-0.4858798	-0.1715299	0	0.0389318	-0.0074795	-0.0067171
C	0.6543397	-1.2157895	-0.0693200	0	-0.0057287	0.0067290	-0.0018708
C	1.2262595	-0.0727800	-0.5891198	0	-0.0052509	0.0001997	0.0055892
O	1.2048395	0.9920096	0.1311800	0	-0.0006509	-0.0034326	0.0019203
H	-1.4503494	0.7026497	1.4558994	0	-0.0090795	-0.0020409	0.0037401
H	0.0637199	1.1540595	0.4012998	0	-0.0090666	-0.0017415	-0.0044188
H	-1.6475494	1.4625794	-0.2457399	0	-0.0068916	0.0016695	0.0008760
H	0.5435198	-2.0983792	-0.6844098	0	-0.0086612	-0.0037159	-0.0015767
H	0.6275397	-1.3589795	1.0019996	0	-0.0093932	-0.0013514	0.0048806
H	1.4107095	0.0231800	-1.6607894	0	-0.0070955	-0.0021447	-0.0050225
