15
Properties=species:S:1:pos:R:3:molID:I:1:forces_dft:R:3 Nmols=1 Comp=VC(1) energy_dft=-9302.269103681832 pbc="F F F"
N	1.7717693	-0.4806498	-1.2779395	0	-0.0017054	0.0022769	0.0062822
C	1.2031595	-0.4706598	-0.0192500	0	0.0132580	-0.0023572	-0.0050554
O	0.5302898	-1.5376394	0.3102099	0	0.0014938	0.0035676	0.0011841
C	1.0997596	0.6564697	0.7588897	0	0.0013932	0.0120573	0.0022975
N	-0.9774696	0.9488896	0.4602498	0	0.0170766	-0.0075622	0.0053960
C	-1.6256294	-0.2003099	0.4097398	0	0.0124969	-0.0106597	-0.0035606
C	-1.4803894	0.5054698	-0.8642697	0	0.0020443	-0.0044658	-0.0028482
H	1.9049693	-1.3987494	-1.6661393	0	0.0023372	-0.0060890	-0.0010192
H	2.5302690	0.1584299	-1.4370294	0	-0.0008811	0.0021943	-0.0005174
H	0.8734397	0.5397098	1.8052593	0	-0.0082290	-0.0046892	0.0045003
H	1.5487694	1.5890494	0.4454198	0	-0.0035858	-0.0009009	0.0043227
H	-0.5210198	-1.2060195	0.4095498	0	-0.0137132	0.0133389	-0.0017599
H	-2.3931191	-0.5401198	1.0942896	0	-0.0050003	-0.0000933	-0.0019358
H	-0.7626997	0.1206899	-1.5811794	0	-0.0047342	-0.0057608	-0.0057289
H	-2.2510491	1.1474096	-1.2820095	0	-0.0069104	-0.0039428	-0.0019025
