15
Properties=species:S:1:pos:R:3:molID:I:1:forces_dft:R:3 Nmols=1 Comp=VC(1) energy_dft=-8291.208748568231 pbc="F F F"
C	-0.8196597	1.1879496	0.2968699	0	0.0418890	0.0272101	-0.0142809
C	-0.5163098	-0.1201800	-0.0020100	0	0.0048024	-0.0062023	0.0008959
C	1.8621193	-0.3238299	-0.1429699	0	-0.0070933	0.0000214	-0.0045859
C	1.9655992	1.0110296	-0.1163199	0	-0.0048587	0.0092876	0.0061350
N	1.6290394	2.1493892	-0.0249400	0	-0.0000508	-0.0062416	-0.0028511
C	-0.8081897	-1.4973794	0.3682998	0	-0.0011396	-0.0023078	-0.0011236
N	-0.8323496	-1.0116996	-1.0306996	0	0.0035334	-0.0046662	-0.0087514
H	-1.3614994	1.7625293	-0.4485898	0	-0.0035082	0.0010596	0.0016314
H	-1.0149096	1.4330694	1.3348295	0	-0.0032830	0.0008430	0.0039829
H	0.4293198	1.9218793	0.1426599	0	-0.0169953	-0.0106295	-0.0003197
H	1.8777293	-0.8367396	-1.0951596	0	-0.0038739	-0.0002905	-0.0004039
H	2.1616391	-0.8779896	0.7375897	0	-0.0007951	0.0022723	0.0027632
H	-1.7563493	-1.6822393	0.8643897	0	-0.0065789	-0.0055597	-0.0005539
H	-0.0273600	-2.2145391	0.5837998	0	-0.0011707	0.0000562	0.0009642
H	-1.7611993	-0.8676997	-1.4081195	0	-0.0081971	-0.0053533	-0.0014485
