13
Properties=species:S:1:pos:R:3:molID:I:1:forces_dft:R:3 Nmols=1 Comp=VC(1) energy_dft=-7794.598932199113 pbc="F F F"
O	0.6804897	1.5004094	-0.9983796	0	-0.0121825	0.0057556	-0.0015544
C	1.5225894	0.8643297	-0.2236599	0	-0.0026132	-0.0007916	0.0061218
C	1.4940794	-0.4763998	-0.0292400	0	-0.0008561	0.0064123	0.0026550
C	-0.6471898	-0.4186299	0.8504597	0	0.0020574	-0.0046099	-0.0072444
C	-1.3902894	0.4205198	0.1377400	0	0.0048795	-0.0055175	-0.0062189
N	-1.4041395	-1.0817395	-0.1739299	0	-0.0024280	0.0040397	-0.0010632
H	2.1901691	1.4993894	0.3601599	0	0.0014051	0.0018902	-0.0021549
H	2.2022691	-0.9243497	0.6565097	0	0.0015672	-0.0024372	0.0031721
H	0.9627196	-1.1292895	-0.7090597	0	0.0030955	-0.0007963	-0.0032466
H	-0.3214399	-0.7016797	1.8357793	0	0.0032506	0.0003096	0.0053836
H	-0.2781899	1.0935396	-0.7996697	0	-0.0013754	-0.0021064	-0.0011908
H	-2.1868091	1.0981995	0.4025099	0	-0.0015975	0.0025380	-0.0040161
H	-2.1890591	-1.5646894	0.2715699	0	-0.0047243	0.0000097	0.0040201
