16
Properties=species:S:1:pos:R:3:molID:I:1:forces_dft:R:3 Nmols=1 Comp=VC(1) energy_dft=-9878.915244083584 pbc="F F F"
C	-2.0954592	-0.4991698	-0.5716297	0	0.0008741	0.0062378	0.0056437
C	-1.2563295	0.5784998	0.0861000	0	0.0130247	-0.0202671	-0.0112431
C	-0.5398098	0.2999299	1.2507395	0	0.0362790	0.0035036	-0.0002895
O	1.3672994	-0.0274300	0.8778697	0	-0.0063212	0.0154996	-0.0048679
C	1.6977194	0.0822200	-0.3350899	0	0.0001256	0.0021962	0.0010566
O	0.9905496	0.6577598	-1.2207695	0	0.0003837	0.0045762	0.0203295
N	2.8731089	-0.4724098	-0.7329697	0	-0.0139217	-0.0074702	0.0017543
H	-3.0775688	-0.6024698	-0.1023200	0	-0.0067582	0.0033291	-0.0010164
H	-2.2582391	-0.2830699	-1.6288794	0	-0.0054726	-0.0007895	-0.0058517
H	-1.5952994	-1.4686894	-0.5147298	0	-0.0049568	-0.0035688	-0.0021591
H	-0.1654499	0.7094797	-0.6502497	0	0.0180244	-0.0022338	-0.0084276
H	-1.6329294	1.5974694	0.0109000	0	-0.0100592	0.0013703	-0.0059356
H	-0.2611899	1.0986196	1.9236693	0	-0.0088690	-0.0007188	-0.0001548
H	-0.5576098	-0.6865397	1.6968093	0	-0.0050104	-0.0007145	0.0028712
H	3.2108288	-0.2527899	-1.6516094	0	-0.0025264	0.0016506	-0.0072129
H	3.5151986	-0.7848997	-0.0291600	0	-0.0061207	0.0009810	0.0018040
