15
Properties=species:S:1:pos:R:3:molID:I:1:forces_dft:R:3 Nmols=1 Comp=VC(1) energy_dft=-10418.916109518179 pbc="F F F"
C	-2.1114391	-0.3031199	-0.4980698	0	0.0047830	0.0088236	-0.0066477
C	-1.7536293	-0.6935197	0.7882697	0	0.0086141	0.0003516	0.0075765
O	0.2398299	-0.5518998	1.0523296	0	0.0043961	0.0024549	-0.0081775
C	0.8571996	-0.0539500	0.0891200	0	-0.0074579	-0.0006108	0.0022689
O	0.4041998	-0.0010300	-1.0971296	0	0.0199416	-0.0014670	-0.0043959
C	2.2218891	0.5602298	0.3287699	0	0.0010312	-0.0028656	-0.0017797
O	2.8352089	0.9889196	-0.8512797	0	-0.0046592	0.0021851	0.0034236
H	-2.5572190	0.6777597	-0.6237298	0	-0.0096071	0.0032117	0.0030374
H	-0.8628397	-0.1564400	-0.9277496	0	0.0205212	0.0044837	0.0036715
H	-2.4607490	-1.0761096	-1.1757095	0	-0.0073893	-0.0028479	-0.0004073
H	-1.6778593	-1.7397593	1.0496096	0	-0.0019705	-0.0045200	0.0006337
H	-1.8418693	-0.0176800	1.6277394	0	-0.0058787	0.0002285	0.0025928
H	2.0758792	1.3914094	1.0304896	0	-0.0085922	-0.0015593	0.0009892
H	2.8408889	-0.1863499	0.8349697	0	-0.0072227	-0.0031737	0.0019913
H	2.1753391	0.9105696	-1.5503494	0	-0.0082437	-0.0032288	-0.0024269
