15
Properties=species:S:1:pos:R:3:molID:I:1:forces_dft:R:3 Nmols=1 Comp=VC(1) energy_dft=-7383.592519624872 pbc="F F F"
C	0.1463299	-1.4055195	0.5111698	0	0.0329251	-0.0038741	-0.0020343
C	-0.5806598	-0.2301899	0.7590697	0	0.0062464	0.0168634	-0.0061384
C	0.5408198	1.5473794	0.1789299	0	0.0007049	-0.0001540	0.0004726
C	1.6011794	0.9405296	-0.3999999	0	0.0024561	0.0020826	0.0033183
C	2.1684591	-0.1374200	-0.6918097	0	-0.0033193	-0.0080234	-0.0053666
C	-1.7578893	0.0453000	-0.0136000	0	-0.0096119	0.0027122	-0.0107781
C	-2.7424589	0.2732299	-0.6603697	0	0.0084064	-0.0079054	0.0064478
H	0.6407397	-1.8766692	1.3535395	0	0.0010007	-0.0020923	0.0027555
H	-0.2396399	-2.0867792	-0.2391699	0	-0.0014132	-0.0023227	-0.0035577
H	1.2805295	-0.9704096	-0.1785499	0	-0.0160883	0.0022661	-0.0024629
H	-0.6047898	0.1457800	1.7741293	0	0.0038042	0.0006731	0.0014209
H	-0.2159999	1.9999992	-0.4510398	0	-0.0042523	-0.0001004	0.0008436
H	0.6772697	2.0184792	1.1467495	0	-0.0003716	-0.0004788	0.0027522
H	3.0344588	-0.5653098	-1.1590996	0	-0.0009492	-0.0023579	-0.0030739
H	-3.6203186	0.4657998	-1.2300295	0	-0.0055497	-0.0008763	-0.0029984
