14
Properties=species:S:1:pos:R:3:molID:I:1:forces_dft:R:3 Nmols=1 Comp=VC(1) energy_dft=-8832.746625907372 pbc="F F F"
O	0.8859297	0.0095300	-1.5178394	0	-0.0014600	-0.0059521	0.0024205
C	-0.1764099	0.7400897	-1.5512294	0	-0.0051443	0.0058525	0.0063350
N	-1.2130695	0.4808698	-0.8397997	0	0.0062215	0.0019990	0.0080290
C	-1.0727796	-0.5855297	0.6391798	0	-0.0004807	0.0037871	0.0019689
C	0.2476599	-1.0044896	0.9004196	0	0.0049061	0.0081624	-0.0011192
C	1.0871196	-0.2285899	1.7429893	0	0.0033999	0.0039422	0.0058125
C	1.7998993	0.4650098	2.4239191	0	-0.0052731	-0.0041078	-0.0086644
H	-0.1343599	1.6010093	-2.2236491	0	0.0005231	0.0005142	-0.0042259
H	-1.9544292	1.1652696	-0.8889097	0	-0.0052855	0.0021564	-0.0024785
H	-1.7803193	-1.3429595	0.3225999	0	-0.0033717	-0.0037613	0.0039109
H	-1.5091794	0.1603599	1.2973995	0	-0.0023520	0.0055478	-0.0025095
H	0.4919398	-2.0501192	0.7515197	0	-0.0004552	-0.0043994	0.0021392
H	0.8161897	-0.5466398	-0.6380498	0	0.0018929	0.0037665	-0.0012379
H	2.4260591	1.0610196	3.0428288	0	0.0021316	0.0011374	0.0014507
