11
Properties=species:S:1:pos:R:3:molID:I:1:forces_dft:R:3 Nmols=1 Comp=VC(1) energy_dft=-10351.399702735605 pbc="F F F"
C	-1.1910195	0.2812799	-0.7881197	0	0.0048416	0.0021768	0.0073790
C	-0.6367297	-0.9370096	-0.3885298	0	0.0002277	-0.0093266	0.0034275
O	-0.5427998	-2.0760692	-0.2562499	0	0.0028851	-0.0015376	-0.0008954
C	1.0737896	-0.3631498	1.3726295	0	-0.0005098	-0.0020068	0.0096909
O	0.9065196	-1.1084195	2.2445091	0	-0.0036825	-0.0082164	-0.0215689
C	1.3680794	0.5245798	0.3975798	0	0.0022059	-0.0103546	0.0006839
O	0.7106697	1.6315094	0.2267399	0	0.0024969	0.0217215	-0.0017137
H	-2.1853791	0.4022198	-0.3614399	0	-0.0064343	-0.0015416	0.0006306
H	-1.1763595	0.3724699	-1.8737093	0	-0.0051108	0.0002290	-0.0062843
H	-0.4023098	1.1556395	-0.3421399	0	0.0049216	0.0048970	0.0018822
H	2.1598592	0.1853199	-0.2795199	0	0.0013805	-0.0020143	-0.0018525
