15
Properties=species:S:1:pos:R:3:molID:I:1:forces_dft:R:3 Nmols=1 Comp=VC(1) energy_dft=-7830.227959959660 pbc="F F F"
C	1.8493693	0.8512397	-0.3202099	0	0.0054032	0.0223833	0.0218828
C	0.9967196	-0.1155699	-0.8550897	0	0.0075356	-0.0044809	0.0128656
N	-0.5700598	-0.4045798	0.2575999	0	0.0286757	-0.0101289	-0.0020097
C	-1.7506793	-0.9573096	-0.3532599	0	-0.0037076	0.0038352	0.0034493
C	-0.6865097	0.4005798	1.2531395	0	-0.0049395	0.0014152	-0.0098953
O	0.3188199	0.9933496	1.7869793	0	0.0098817	-0.0080718	-0.0098611
H	2.8080689	0.5240798	0.0667100	0	-0.0007338	-0.0001135	-0.0058592
H	1.1103096	0.9871196	0.9764596	0	-0.0016246	-0.0011421	-0.0052698
H	1.8135193	1.8530493	-0.7323497	0	-0.0047569	0.0008865	-0.0036669
H	1.2888495	-1.1583096	-0.8312097	0	-0.0009151	-0.0049060	-0.0098459
H	0.3596199	0.1344900	-1.6978993	0	-0.0091382	0.0010113	-0.0007710
H	-1.6750094	-2.0451392	-0.4117198	0	-0.0048108	-0.0074855	-0.0028519
H	-1.8749393	-0.5765598	-1.3713194	0	-0.0087707	0.0016980	-0.0042395
H	-2.6539090	-0.7029997	0.2128899	0	-0.0070138	-0.0006166	0.0007172
H	-1.6776593	0.6265497	1.6775894	0	-0.0039338	-0.0003264	0.0006956
