17
Properties=species:S:1:pos:R:3:molID:I:1:forces_dft:R:3 Nmols=1 Comp=VC(1) energy_dft=-7416.916799283705 pbc="F F F"
C	-1.2291995	0.2784399	1.3949195	0	-0.0023609	-0.0058221	-0.0020029
C	-1.3573495	-0.4952898	0.1011600	0	0.0029851	0.0017790	-0.0061556
C	-0.7841397	-0.0220500	-1.1989196	0	0.0113132	0.0091101	0.0069470
C	-0.1898899	-1.0883596	-0.6244398	0	0.0201287	0.0105714	0.0143527
C	1.7455293	-0.7552397	0.2483199	0	0.0039959	-0.0057774	-0.0040057
C	1.8910292	0.5364898	-0.0928200	0	-0.0033933	-0.0062452	-0.0023737
C	1.3744795	1.5610494	-0.6304497	0	-0.0020051	0.0009917	-0.0004780
H	-2.0641292	0.9746596	1.5048294	0	-0.0030703	0.0016311	0.0004365
H	-1.2496895	-0.3974299	2.2541591	0	-0.0064887	-0.0017276	0.0019562
H	-0.3077399	0.8581597	1.4358094	0	-0.0018680	-0.0072885	-0.0029154
H	-2.2893991	-1.0646496	0.0556000	0	-0.0031634	0.0016458	0.0013487
H	-1.1627296	0.2046299	-2.1831391	0	-0.0048022	0.0002216	-0.0030582
H	0.2876599	1.1611395	-0.9926096	0	-0.0113311	-0.0033977	-0.0052251
H	0.0674200	-2.0833792	-0.9481696	0	-0.0024990	-0.0042634	0.0002314
H	2.2879191	-1.5116994	-0.3080399	0	-0.0011778	-0.0011969	-0.0042834
H	1.5140694	-1.0081196	1.2781595	0	-0.0018416	-0.0023954	0.0022665
H	1.6476294	2.5879490	-0.7974797	0	0.0001915	0.0013911	0.0032531
