15
Properties=species:S:1:pos:R:3:molID:I:1:forces_dft:R:3 Nmols=1 Comp=VC(1) energy_dft=-8395.950137574526 pbc="F F F"
C	-1.4013994	-0.7986497	-0.2446199	0	0.0323605	-0.0051934	0.0032764
C	-1.8079093	0.5155498	-0.0573300	0	0.0160019	0.0149702	0.0109619
C	-0.3954598	1.8373893	0.4281698	0	-0.0125615	0.0124673	0.0028013
O	-0.8951496	2.8926889	0.5508898	0	-0.0022283	-0.0027075	-0.0001498
C	0.8112697	1.1642995	0.4941998	0	0.0008426	-0.0045327	-0.0036453
C	1.0972196	-0.0681800	0.3020399	0	-0.0044907	-0.0057419	-0.0039540
C	2.2982491	-0.9344996	0.3287999	0	-0.0081532	-0.0011514	0.0002712
H	0.0549600	-0.6568697	0.0195400	0	-0.0088978	0.0043561	0.0028620
H	-1.2979095	-1.1956795	-1.2486995	0	-0.0030244	-0.0048236	-0.0037891
H	-1.5870794	-1.5373794	0.5275498	0	-0.0038484	-0.0020510	-0.0007996
H	-2.3654891	0.7625497	0.8390497	0	-0.0018482	0.0006058	0.0036524
H	-2.0770892	1.1037196	-0.9273396	0	-0.0040890	0.0008034	-0.0024809
H	3.1948287	-0.3691999	0.5738198	0	0.0008702	0.0013617	0.0032416
H	2.1636891	-1.7307493	1.0642096	0	-0.0079980	-0.0015036	-0.0001443
H	2.4304190	-1.4160394	-0.6425097	0	-0.0069152	-0.0033312	-0.0030407
