3
Properties=species:S:1:pos:R:3:molID:I:1:forces_dft:R:3 Nmols=1 Comp=VC(2) energy_dft=-2080.011771692232 pbc="F F F"
O	1.1075496	2.6788590	-0.6421497	0	-0.0016357	-0.0069116	-0.0002569
H	1.1250796	3.2491487	0.1273299	0	0.0005293	-0.0013548	-0.0021714
H	1.1123896	3.2688487	-1.3968095	0	0.0001194	-0.0012651	0.0021300
