6
Properties=species:S:1:pos:R:3:molID:I:1:forces_dft:R:3 Nmols=1 Comp=VC(1) energy_dft=-3149.396605118569 pbc="F F F"
C	1.4929194	1.5907694	0.4381598	0	-0.0024807	0.0105576	-0.0006669
O	0.3211399	2.1148792	-0.1494300	0	-0.0150235	0.0026383	-0.0003166
H	0.3410699	3.0693788	-0.0763700	0	0.0025703	-0.0006400	-0.0007336
H	1.5622894	1.8265493	1.5062794	0	0.0028009	-0.0002547	0.0034201
H	2.4016691	1.9465892	-0.0604200	0	0.0028739	0.0004602	-0.0000993
H	1.4469994	0.5075598	0.3311899	0	0.0015975	-0.0046171	0.0029678
