11
Properties=species:S:1:pos:R:3:molID:I:1:forces_dft:R:3 Nmols=1 Comp=VC(1) energy_dft=-7303.028021239768 pbc="F F F"
C	1.2775995	-0.6863097	0.2832499	0	-0.0029565	-0.0009583	-0.0011249
C	-0.0188100	-0.5997298	0.0168800	0	-0.0008887	-0.0056086	0.0012093
O	-0.6288698	0.4923598	-0.5237798	0	0.0040594	0.0035766	0.0063019
H	0.0031500	1.2093495	-0.6124698	0	0.0012734	0.0018909	-0.0036601
C	-1.0257696	-1.6872193	0.2463999	0	0.0030982	0.0065079	0.0071704
O	-2.0953492	-1.2657695	1.0635996	0	-0.0109070	-0.0107829	-0.0063532
H	-2.4552990	-0.4614498	0.6818197	0	-0.0034366	0.0003373	-0.0018761
H	-1.3930795	-2.0342892	-0.7292397	0	-0.0020116	-0.0009945	-0.0022395
H	-0.5488298	-2.5279090	0.7475197	0	-0.0001811	-0.0014138	-0.0027325
H	1.6809993	-1.5815194	0.7327697	0	0.0006849	-0.0001099	0.0011143
H	1.9665692	0.1207499	0.0615500	0	0.0009865	-0.0005741	-0.0009836
