3
Properties=species:S:1:pos:R:3:molID:I:1:forces_dft:R:3 Nmols=1 Comp=VC(2) energy_dft=-2080.011598556244 pbc="F F F"
O	-1.6180894	-1.5341794	-2.0949692	0	0.0033040	-0.0007843	0.0026131
H	-1.8503293	-0.7926097	-1.5347294	0	-0.0009534	-0.0017290	0.0002238
H	-2.2698791	-2.2102891	-1.9056092	0	-0.0006369	-0.0005680	0.0031362
