14
Properties=species:S:1:pos:R:3:molID:I:1:forces_dft:R:3 Nmols=1 Comp=VC(1) energy_dft=-7360.817440976983 pbc="F F F"
C	2.6553990	0.7268397	0.5092498	0	-0.0127884	0.0046116	-0.0030007
O	1.3379895	1.2082995	0.3865498	0	-0.0033287	0.0076990	0.0024111
C	0.4496998	0.2218599	-0.0105500	0	-0.0017967	0.0045165	0.0043389
H	0.6609597	-0.2090699	-0.9902596	0	0.0022488	0.0006482	-0.0038806
C	-0.1475199	-0.7256297	1.0339996	0	-0.0028605	0.0101706	-0.0048795
H	-0.3113699	-1.7621193	0.7607197	0	-0.0039752	-0.0038990	-0.0027293
H	0.1523800	-0.5614698	2.0638392	0	-0.0000764	-0.0020908	0.0022450
C	-0.9404696	0.3361099	0.4017699	0	0.0008757	-0.0070784	-0.0047593
C	-2.0767492	0.9866496	0.3124699	0	0.0034583	0.0037139	0.0018359
H	-2.9422288	0.6917897	0.8946297	0	-0.0016643	-0.0019363	0.0001913
H	-2.1778492	1.8449793	-0.3412798	0	-0.0007657	0.0016799	-0.0000858
H	3.0268888	0.3315199	-0.4444898	0	0.0001621	0.0007563	-0.0009101
H	2.7242289	-0.0642800	1.2653795	0	0.0053453	-0.0029077	0.0016620
H	3.2791587	1.5665594	0.8116797	0	0.0031354	0.0002041	-0.0006696
