3
Properties=species:S:1:pos:R:3:molID:I:1:forces_dft:R:3 Nmols=1 Comp=VC(2) energy_dft=-2080.011731256337 pbc="F F F"
O	0.1601100	-1.3400395	2.1433191	0	-0.0011971	0.0031706	-0.0063444
H	-0.3032499	-1.3364395	2.9819088	0	-0.0026649	0.0009535	0.0036793
H	-0.3682399	-0.7956097	1.5583394	0	-0.0007114	0.0007045	-0.0010399
