9
Properties=species:S:1:pos:R:3:molID:I:1:forces_dft:R:3 Nmols=1 Comp=VC(1) energy_dft=-6155.377957053672 pbc="F F F"
N	0.7039097	0.3152699	0.8121697	0	0.0097863	-0.0090803	0.0014593
C	0.9222396	-0.2386499	-0.4409398	0	-0.0033111	-0.0021504	-0.0039098
C	0.0180300	-0.8433296	-1.2123995	0	0.0030719	0.0072735	0.0033547
H	-1.0215996	-0.9013297	-0.9162597	0	-0.0031691	-0.0027979	0.0010149
H	0.3141699	-1.3007895	-2.1435592	0	0.0000142	-0.0010402	-0.0015712
C	2.2971291	-0.1799599	-0.8784496	0	0.0075399	0.0000570	-0.0002954
N	3.3913286	-0.1075899	-1.2174395	0	-0.0038395	-0.0021538	-0.0000691
H	1.3233195	1.0626796	1.0751396	0	0.0030461	0.0008894	-0.0015652
H	-0.2594999	0.4984598	1.0371296	0	-0.0087168	-0.0005319	0.0011699
