13
Properties=species:S:1:pos:R:3:molID:I:1:forces_dft:R:3 Nmols=1 Comp=VC(1) energy_dft=-5314.547313524249 pbc="F F F"
C	1.5085394	-0.0236600	-0.7501197	0	0.0040492	-0.0029088	0.0141357
C	0.9265297	0.1374100	0.6414097	0	0.0015394	0.0036114	-0.0037243
H	1.7235293	0.3366499	1.3644795	0	-0.0043585	-0.0001147	0.0034070
C	-0.2636499	1.0626396	0.8009697	0	0.0036554	0.0192731	0.0072174
H	-0.3863399	2.1253591	0.6261597	0	-0.0034472	0.0029151	-0.0069189
C	-1.0823096	0.1032099	1.2250995	0	0.0138611	-0.0026042	-0.0138567
H	-2.1197992	0.0930900	1.5370094	0	-0.0042594	-0.0007470	0.0025009
C	-0.0427900	-0.9884896	1.1301196	0	-0.0041414	-0.0015238	0.0004528
H	0.2358299	-1.4719994	2.0693392	0	0.0009814	-0.0080443	0.0000795
H	-0.2391599	-1.7604793	0.3817499	0	-0.0019045	-0.0022491	-0.0051734
H	2.0162692	0.8876496	-1.0742296	0	-0.0010077	0.0003668	-0.0003933
H	0.7207797	-0.2430299	-1.4755394	0	-0.0033707	-0.0044821	-0.0031150
H	2.2341591	-0.8398697	-0.7805697	0	-0.0006393	-0.0041770	-0.0002859
