6
Properties=species:S:1:pos:R:3:molID:I:1:forces_dft:R:3 Nmols=1 Comp=VC(1) energy_dft=-3149.397248436338 pbc="F F F"
C	1.2197895	-1.9631992	-1.4538894	0	-0.0153109	-0.0045843	0.0072694
O	0.1419599	-2.2491891	-0.5886598	0	0.0027638	-0.0026781	0.0040186
H	-0.6722797	-2.2192191	-1.0916596	0	-0.0004249	0.0020577	-0.0010829
H	1.1420195	-0.9641396	-1.8978592	0	0.0024600	0.0044411	0.0028324
H	2.1292192	-1.9989492	-0.8550596	0	0.0045508	-0.0048230	-0.0015416
H	1.3125195	-2.7002189	-2.2597891	0	0.0021080	0.0014141	-0.0039315
