10
Properties=species:S:1:pos:R:3:molID:I:1:forces_dft:R:3 Nmols=1 Comp=VC(1) energy_dft=-5716.256126461512 pbc="F F F"
C	0.3632198	0.0942000	-1.2893395	0	0.0066918	-0.0031002	0.0015446
H	1.2698295	0.3932898	-1.7975493	0	0.0002282	0.0000037	-0.0011723
C	-0.1072299	-1.0702296	-0.8395497	0	-0.0080071	0.0207882	0.0041794
H	0.2696799	-2.0840292	-0.8406397	0	-0.0004703	-0.0039025	0.0002060
C	-1.2471495	-0.4003399	-0.0937700	0	0.0080268	0.0023626	0.0081748
H	-2.2763891	-0.7098397	0.0154800	0	-0.0090519	0.0025814	0.0085367
N	-0.6174298	0.5533998	0.8516996	0	0.0083025	-0.0069106	-0.0109720
H	-1.3665694	1.0439396	1.3409495	0	-0.0017821	-0.0033848	-0.0008151
C	-0.7289597	0.8832897	-0.5899898	0	0.0018309	-0.0016560	0.0068588
H	-1.2858895	1.7423493	-0.9341496	0	0.0001367	-0.0022912	-0.0019314
