9
Properties=species:S:1:pos:R:3:molID:I:1:forces_dft:R:3 Nmols=1 Comp=VC(2) energy_dft=-4219.427958256223 pbc="F F F"
O	-0.7676697	0.4687098	-1.0629196	0	-0.0066343	0.0023592	-0.0147092
C	-1.8531893	0.2390199	-0.1810799	0	0.0020249	-0.0016893	-0.0035463
C	-2.9728888	-0.3978498	-0.9712096	0	-0.0011420	-0.0019833	0.0106300
H	-3.8322485	-0.5939197	-0.3275499	0	-0.0004862	0.0003628	0.0062541
H	-2.6410990	-1.3416695	-1.4062195	0	-0.0004332	-0.0004581	0.0004182
H	-3.2881487	0.2607899	-1.7817793	0	0.0003993	0.0024955	-0.0016980
H	-2.1971692	1.1823495	0.2628199	0	0.0002998	-0.0000507	0.0043363
H	-1.5501994	-0.4236798	0.6400697	0	-0.0015214	-0.0017191	0.0012061
H	-0.0474700	0.8657697	-0.5719498	0	0.0006974	-0.0025252	0.0014536
