3
Properties=species:S:1:pos:R:3:molID:I:1:forces_dft:R:3 Nmols=1 Comp=VC(2) energy_dft=-2080.011570121909 pbc="F F F"
O	-0.8453197	-0.0690900	2.7389289	0	0.0072902	0.0018512	0.0076370
H	-0.9204796	0.8848997	2.7831289	0	0.0004157	-0.0006560	-0.0012225
H	-0.2749199	-0.2451999	1.9896892	0	-0.0006126	0.0002484	-0.0001155
