13
Properties=species:S:1:pos:R:3:molID:I:1:forces_dft:R:3 Nmols=1 Comp=VC(1) energy_dft=-6325.599965826905 pbc="F F F"
C	-1.3733095	-0.7904497	-0.8525397	0	0.0071156	0.0020438	0.0012722
C	-0.4343299	0.1041100	-0.5755798	0	-0.0005926	-0.0015517	0.0051529
C	-0.7280297	1.4524494	0.0095600	0	0.0064188	-0.0029689	0.0017970
H	-0.3610498	2.2467291	-0.6471398	0	0.0003927	0.0033463	0.0000180
H	-1.7975693	1.5953494	0.1620099	0	-0.0045907	0.0047369	0.0021665
H	-0.2156199	1.5678294	0.9659496	0	0.0031839	-0.0071284	0.0015218
C	1.0110696	-0.1835199	-0.8679297	0	0.0035796	0.0018349	-0.0028461
O	1.7740493	0.0341000	0.3083199	0	-0.0016247	0.0031659	0.0014581
H	2.7035989	0.0258100	0.0783399	0	0.0008805	-0.0007367	0.0002483
H	1.1202996	-1.2140895	-1.2239095	0	0.0028715	-0.0025172	0.0020611
H	1.3486994	0.4905898	-1.6683793	0	-0.0017382	0.0001948	-0.0035161
H	-2.4233090	-0.5808498	-0.6834397	0	-0.0027714	0.0014992	0.0030152
H	-1.1243696	-1.7643993	-1.2584395	0	0.0028759	-0.0023877	-0.0024798
