6
Properties=species:S:1:pos:R:3:molID:I:1:forces_dft:R:3 Nmols=1 Comp=VC(1) energy_dft=-3149.397348996203 pbc="F F F"
C	1.9828292	0.4333798	1.0355296	0	-0.0024490	-0.0004871	-0.0023787
O	1.5391494	-0.6850897	0.2976399	0	-0.0117739	0.0003404	0.0018002
H	0.9831796	-1.2241295	0.8608097	0	-0.0005692	0.0008018	0.0022171
H	2.6088690	1.0274296	0.3706299	0	0.0023838	-0.0002049	-0.0040069
H	1.1520395	1.0624796	1.3749095	0	0.0001114	0.0023444	0.0022981
H	2.5852390	0.1445699	1.9043992	0	0.0040728	-0.0041117	0.0011013
