3
Properties=species:S:1:pos:R:3:molID:I:1:forces_dft:R:3 Nmols=1 Comp=VC(2) energy_dft=-2080.011674066110 pbc="F F F"
O	1.3134895	-0.3015499	-2.3405191	0	-0.0038889	0.0001313	-0.0107517
H	1.4546294	-0.1596700	-1.4036295	0	0.0004497	0.0004332	0.0026907
H	1.7841493	0.4081498	-2.7794089	0	0.0014871	0.0025381	-0.0002821
