3
Properties=species:S:1:pos:R:3:molID:I:1:forces_dft:R:3 Nmols=1 Comp=VC(2) energy_dft=-2080.011494007623 pbc="F F F"
O	-0.1432200	-2.2756691	1.2039195	0	-0.0010467	0.0000359	-0.0049107
H	-0.8975997	-1.8607293	0.7838597	0	-0.0002844	0.0000864	-0.0005114
H	-0.5074398	-2.9735788	1.7498193	0	0.0008177	-0.0005077	-0.0001286
