3
Properties=species:S:1:pos:R:3:molID:I:1:forces_dft:R:3 Nmols=1 Comp=VC(2) energy_dft=-2080.011684721495 pbc="F F F"
O	0.0646800	0.0567500	2.8557889	0	0.0082316	0.0063642	-0.0040780
H	0.4033398	0.7107997	2.2433591	0	-0.0046466	-0.0029395	0.0027828
H	-0.7632097	-0.2418399	2.4772890	0	-0.0013437	0.0004282	-0.0038816
