3
Properties=species:S:1:pos:R:3:molID:I:1:forces_dft:R:3 Nmols=1 Comp=VC(2) energy_dft=-2080.011528538128 pbc="F F F"
O	0.5750998	0.3777898	2.6991289	0	0.0013203	0.0056572	-0.0034475
H	1.0909196	0.1453199	1.9261792	0	-0.0025473	0.0017740	0.0033928
H	-0.0974099	0.9829796	2.3842390	0	0.0001010	-0.0015561	0.0005053
