12
Properties=species:S:1:pos:R:3:molID:I:1:forces_dft:R:3 Nmols=1 Comp=VC(1) energy_dft=-4278.503850067103 pbc="F F F"
C	-2.3745891	-1.0373296	0.6939197	0	0.0065521	0.0026787	-0.0065188
C	-1.2233395	-0.1283000	0.2666899	0	0.0047876	0.0029460	-0.0043302
C	-0.9532596	-0.2001899	-1.2050295	0	-0.0038840	0.0024374	0.0057655
C	0.1929999	-0.5706798	-1.7543293	0	-0.0039023	-0.0000413	-0.0001403
H	0.3222199	-0.6082097	-2.8292889	0	0.0004040	0.0000007	-0.0054288
H	1.0477296	-0.8487097	-1.1457895	0	0.0006527	-0.0024397	0.0012405
H	-1.7854693	0.0668300	-1.8544993	0	-0.0008608	0.0015092	-0.0037616
H	-1.4667894	0.9059797	0.5331398	0	0.0055312	0.0027946	-0.0012204
H	-0.3150399	-0.3882999	0.8168397	0	0.0040580	0.0002676	-0.0009451
H	-2.1450391	-2.0827492	0.4786798	0	0.0037892	-0.0042579	-0.0003518
H	-3.2944887	-0.7832797	0.1620199	0	-0.0039153	-0.0012935	-0.0000162
H	-2.5718590	-0.9455596	1.7634193	0	0.0000513	0.0017894	0.0040438
