3
Properties=species:S:1:pos:R:3:molID:I:1:forces_dft:R:3 Nmols=1 Comp=VC(2) energy_dft=-2080.011577208900 pbc="F F F"
O	-1.2603595	-1.0371796	-2.3283891	0	-0.0009053	-0.0001248	-0.0017289
H	-1.2915995	-0.5214398	-1.5216794	0	-0.0011423	-0.0013900	0.0013114
H	-1.2411095	-1.9522792	-2.0452192	0	0.0003119	-0.0058214	0.0031674
