3
Properties=species:S:1:pos:R:3:molID:I:1:forces_dft:R:3 Nmols=1 Comp=VC(2) energy_dft=-2080.011655070321 pbc="F F F"
O	-0.7790697	2.4276990	-0.4483098	0	-0.0041874	-0.0020289	-0.0006337
H	-1.4935894	1.7914893	-0.3998598	0	0.0000384	0.0010812	0.0008766
H	-0.4207498	2.3418391	-1.3326395	0	0.0003231	0.0006968	-0.0023959
