13
Properties=species:S:1:pos:R:3:molID:I:1:forces_dft:R:3 Nmols=1 Comp=VC(1) energy_dft=-6325.329249555813 pbc="F F F"
C	2.2432491	-0.5621698	-0.5395898	0	-0.0032170	0.0004993	-0.0060982
O	1.2853295	0.1235900	0.2345999	0	-0.0135413	0.0021994	-0.0053092
C	0.1575999	0.4778998	-0.4328499	0	-0.0022517	-0.0018368	0.0049472
C	-0.9486896	0.8574597	0.1881499	0	0.0047659	-0.0060775	-0.0010213
C	-2.1843091	1.3024295	-0.5275598	0	0.0026265	0.0065368	0.0026943
H	-3.0446088	0.6853297	-0.2554499	0	-0.0024251	-0.0040893	-0.0017600
H	-2.0593292	1.2427795	-1.6104893	0	0.0009819	-0.0001689	-0.0038014
H	-2.4398190	2.3357191	-0.2777499	0	-0.0000574	0.0034298	0.0028714
H	-0.9541096	0.8543096	1.2739495	0	0.0001661	0.0003437	0.0038465
H	0.2299699	0.4551798	-1.5203194	0	0.0001697	0.0025990	-0.0036305
H	1.8610093	-1.5295394	-0.8823597	0	-0.0020844	-0.0037855	0.0003418
H	2.5497390	0.0301400	-1.4090794	0	0.0031960	0.0002146	-0.0018562
H	3.1086188	-0.7272297	0.0992199	0	-0.0003149	0.0002815	0.0036701
