3
Properties=species:S:1:pos:R:3:molID:I:1:forces_dft:R:3 Nmols=1 Comp=VC(2) energy_dft=-2080.011530385102 pbc="F F F"
O	-0.8162897	0.9856696	-2.0299192	0	-0.0020984	-0.0014512	-0.0018774
H	-1.2996095	0.7543497	-1.2357795	0	-0.0005369	-0.0004043	0.0012211
H	-1.1042196	0.3590999	-2.6949389	0	-0.0000767	0.0003344	0.0000628
