3
Properties=species:S:1:pos:R:3:molID:I:1:forces_dft:R:3 Nmols=1 Comp=VC(2) energy_dft=-2080.011627899494 pbc="F F F"
O	2.2102491	-0.4640198	-1.5857394	0	-0.0072171	0.0048894	0.0015036
H	2.0731292	-0.8173697	-0.7058397	0	0.0010744	-0.0016093	0.0041553
H	3.1541588	-0.5217998	-1.7391693	0	0.0028794	0.0001669	-0.0007272
