3
Properties=species:S:1:pos:R:3:molID:I:1:forces_dft:R:3 Nmols=1 Comp=VC(2) energy_dft=-2080.011717223826 pbc="F F F"
O	-1.6073494	1.7982993	1.0555996	0	0.0029940	-0.0081882	-0.0002164
H	-1.8290793	1.5805994	0.1493399	0	-0.0009485	-0.0016630	-0.0041986
H	-1.1890596	2.6592889	1.0160696	0	0.0009420	0.0022081	0.0017364
