14
Properties=species:S:1:pos:R:3:molID:I:1:forces_dft:R:3 Nmols=1 Comp=VC(1) energy_dft=-8372.561545663366 pbc="F F F"
C	2.3049791	-0.0654700	0.4145198	0	-0.0123024	0.0099430	-0.0062963
O	0.9545796	0.3244799	0.4146398	0	-0.0158439	0.0060895	0.0086122
C	0.2947499	0.0455400	-0.8002297	0	0.0025698	0.0001679	0.0093766
C	-1.0623396	0.6905197	-0.7511897	0	0.0059023	-0.0050888	-0.0108864
O	-1.0735596	1.9114592	-0.1646299	0	0.0009038	-0.0042872	0.0104761
H	-0.2735199	1.9795392	0.3698699	0	0.0075468	0.0004612	-0.0004350
C	-2.1498991	0.1622900	-1.2943695	0	-0.0016452	0.0049752	0.0063906
H	-2.1053892	-0.8075097	-1.7687193	0	-0.0026712	-0.0013116	-0.0020896
H	-3.0900888	0.6960897	-1.2866595	0	-0.0005495	0.0000898	-0.0012401
H	0.8705297	0.4722198	-1.6357293	0	0.0005531	-0.0013162	-0.0022102
H	0.1989699	-1.0332396	-0.9636096	0	-0.0041790	-0.0038765	-0.0040984
H	2.7263489	0.2193299	1.3770795	0	0.0024316	-0.0000727	0.0047249
H	2.8624889	0.4361399	-0.3862898	0	0.0022587	-0.0005343	0.0003152
H	2.4051991	-1.1498195	0.2866999	0	0.0010263	-0.0054933	-0.0048993
