16
Properties=species:S:1:pos:R:3:molID:I:1:forces_dft:R:3 Nmols=1 Comp=VC(1) energy_dft=-6384.270268484616 pbc="F F F"
C	2.4448290	-0.2731799	-0.6697197	0	-0.0045069	-0.0097430	0.0093324
C	1.1403195	-0.7701897	-0.1282500	0	0.0013104	0.0050613	-0.0051101
C	0.0074900	-0.1056200	-0.1921199	0	0.0009456	0.0069532	-0.0042707
C	-0.7008097	1.0967395	-0.6385797	0	0.0031413	-0.0079300	0.0057415
H	-0.8925297	1.2209695	-1.6997793	0	0.0012977	0.0016287	-0.0039023
H	-0.5548698	2.0252792	-0.0978600	0	-0.0024619	0.0029902	0.0005365
C	-1.4268294	-0.0465600	0.0768100	0	0.0053106	-0.0038165	-0.0037137
C	-2.3936191	-0.9203896	-0.6835697	0	-0.0038558	0.0034761	-0.0034997
H	-2.0439592	-1.0816396	-1.7053794	0	-0.0027959	-0.0019865	-0.0032616
H	-3.3848187	-0.4637398	-0.7296097	0	-0.0019353	0.0040151	0.0009070
H	-2.4925190	-1.8989193	-0.2090399	0	0.0039853	-0.0032932	0.0016033
H	-1.7129593	0.1681999	1.1031696	0	-0.0013633	-0.0011395	0.0038452
H	1.1420595	-1.7467393	0.3504799	0	-0.0008133	0.0002560	0.0012966
H	2.8499489	-0.9649796	-1.4130494	0	0.0005861	0.0026133	-0.0039448
H	3.1917488	-0.1842000	0.1237599	0	0.0005608	0.0022112	0.0037706
H	2.3270591	0.7039697	-1.1391795	0	0.0032853	0.0038335	0.0009110
