11
Properties=species:S:1:pos:R:3:molID:I:1:forces_dft:R:3 Nmols=1 Comp=VC(2) energy_dft=-6292.772806800546 pbc="F F F"
C	-1.2547995	-0.6616697	1.5355494	0	-0.0038139	0.0013204	-0.0020116
C	-1.2371795	0.0273100	0.3982798	0	-0.0004566	0.0036550	0.0045018
C	-1.9397493	-0.3648799	-0.8614997	0	0.0091160	0.0050472	0.0024924
H	-1.2258095	-0.4581698	-1.6816793	0	0.0011177	-0.0020307	-0.0012420
H	-2.4694490	-1.3093595	-0.7428197	0	0.0002801	-0.0021569	-0.0051018
H	-2.6519990	0.4081998	-1.1552895	0	-0.0023777	-0.0001146	0.0028659
C	-0.4562198	1.2875695	0.3769999	0	0.0002723	-0.0016158	-0.0045203
O	-0.3549099	2.0013892	-0.5859097	0	0.0022571	0.0017860	0.0061159
H	0.0464400	1.5425494	1.3328095	0	0.0008766	0.0057617	0.0029775
H	-0.7185497	-0.3059699	2.4090390	0	-0.0025765	0.0033405	0.0018843
H	-1.7978693	-1.5939694	1.6359794	0	-0.0012310	-0.0026550	-0.0035747
