15
Properties=species:S:1:pos:R:3:molID:I:1:forces_dft:R:3 Nmols=1 Comp=VC(1) energy_dft=-5348.512092748128 pbc="F F F"
C	-2.3446491	-0.0743099	0.1939399	0	0.0016618	0.0006493	-0.0067094
C	-1.3723894	0.5368298	-0.8137997	0	0.0007919	-0.0008651	0.0043495
C	-0.0370600	0.8462296	-0.2083099	0	0.0003811	0.0006353	-0.0053299
C	1.1211296	0.3419099	-0.6096997	0	-0.0007487	0.0008449	-0.0007828
C	2.4510990	0.6428997	0.0057100	0	-0.0006756	0.0045905	0.0031767
H	2.9214188	-0.2668299	0.3883698	0	0.0009510	-0.0013021	0.0014493
H	3.1380988	1.0706396	-0.7293097	0	0.0001215	0.0067533	-0.0036665
H	2.3542891	1.3486095	0.8322097	0	-0.0028372	0.0015941	0.0029674
H	1.1232796	-0.3469299	-1.4531694	0	-0.0010746	0.0008730	-0.0012911
H	-0.0432300	1.5330594	0.6382697	0	-0.0014922	0.0000576	0.0009097
H	-1.2384595	-0.1400999	-1.6619993	0	0.0012342	-0.0020387	-0.0009174
H	-1.8080093	1.4579794	-1.2161295	0	-0.0024637	0.0005618	0.0000273
H	-3.3171587	-0.2690599	-0.2620999	0	-0.0036660	-0.0034766	-0.0005336
H	-1.9567392	-1.0170696	0.5849698	0	0.0011876	-0.0026326	0.0003594
H	-2.5031490	0.5959698	1.0420996	0	0.0005849	0.0027673	0.0010092
