11
Properties=species:S:1:pos:R:3:molID:I:1:forces_dft:R:3 Nmols=1 Comp=VC(1) energy_dft=-6292.569708753244 pbc="F F F"
C	0.2909999	1.3357595	-0.4180898	0	-0.0023318	-0.0038396	-0.0014110
H	0.6203698	2.1145692	-1.0869996	0	-0.0030108	0.0002197	-0.0035320
C	1.0055796	0.8001297	0.5597498	0	0.0095547	-0.0020296	-0.0072975
H	2.0129692	1.0221196	0.8822997	0	0.0028707	-0.0022560	0.0003428
O	0.3896599	-0.1918399	1.2538095	0	0.0129919	-0.0053538	0.0018480
C	-0.9726296	-0.2369299	0.7880797	0	0.0092162	0.0057501	-0.0000546
H	-1.2386795	-1.2820995	0.6347498	0	-0.0041426	-0.0029236	0.0010646
H	-1.6060294	0.1775699	1.5769794	0	-0.0020112	0.0003308	0.0031758
C	-1.0318996	0.6147397	-0.4917698	0	0.0041647	0.0008967	0.0032120
H	-1.1025795	0.0016100	-1.3954394	0	-0.0014304	-0.0024206	-0.0012318
H	-1.8923492	1.2861195	-0.4866498	0	-0.0051074	0.0002795	0.0012253
