3
Properties=species:S:1:pos:R:3:molID:I:1:forces_dft:R:3 Nmols=1 Comp=VC(2) energy_dft=-2080.011634908823 pbc="F F F"
O	0.4909698	-2.6096190	-0.9496496	0	-0.0007336	0.0073322	0.0022365
H	-0.1238200	-2.1319992	-1.5079894	0	-0.0019549	0.0011335	-0.0020322
H	1.2032195	-1.9944292	-0.7710597	0	-0.0026880	-0.0016976	0.0005413
