6
Properties=species:S:1:pos:R:3:molID:I:1:forces_dft:R:3 Nmols=1 Comp=VC(1) energy_dft=-3149.396912957028 pbc="F F F"
C	2.1707591	1.1536895	-0.0097700	0	-0.0049382	-0.0052644	0.0087568
O	1.1269796	0.6983597	0.8240297	0	-0.0097761	0.0106727	-0.0045378
H	0.9263396	-0.2101899	0.5974498	0	-0.0006441	-0.0060076	-0.0035922
H	3.0927388	0.5768698	0.1261699	0	0.0044349	-0.0021532	-0.0029410
H	1.8946592	1.1305296	-1.0702696	0	0.0004641	-0.0007956	-0.0059942
H	2.3727091	2.1881391	0.2660899	0	0.0000668	0.0041396	0.0020582
