10
Properties=species:S:1:pos:R:3:molID:I:1:forces_dft:R:3 Nmols=1 Comp=VC(2) energy_dft=-4244.292700920154 pbc="F F F"
C	0.2455999	-0.1861099	-1.8129793	0	0.0028175	0.0036897	-0.0052371
C	-0.7268797	0.2084399	-1.0237996	0	-0.0107755	-0.0036396	0.0003468
C	-1.2360095	1.1968795	-0.0756500	0	0.0012741	-0.0006240	-0.0019013
H	-0.8177297	1.2181495	0.9240596	0	0.0041797	0.0012046	0.0015241
H	-1.5534694	2.1622891	-0.4525398	0	0.0017826	0.0034959	-0.0019564
C	-2.0606192	-0.0280400	-0.4761198	0	0.0128093	-0.0017495	0.0017768
H	-2.1888991	-0.8125797	0.2606899	0	-0.0040504	-0.0016528	0.0018803
H	-2.9194489	0.1317499	-1.1177496	0	-0.0012850	-0.0021973	-0.0029631
H	0.1643899	-1.0982496	-2.3927891	0	-0.0004018	-0.0020627	-0.0013842
H	1.1602495	0.3879998	-1.9056492	0	0.0013958	0.0005611	-0.0027140
