13
Properties=species:S:1:pos:R:3:molID:I:1:forces_dft:R:3 Nmols=1 Comp=VC(2) energy_dft=-6325.604784065202 pbc="F F F"
C	0.3254699	1.7154093	0.9592996	0	0.0050658	-0.0052052	0.0001899
C	-0.4103398	1.6547393	-0.1374799	0	-0.0051378	0.0022013	-0.0019670
C	-1.4334594	0.5982498	-0.4317699	0	0.0082382	-0.0018838	-0.0092293
C	-1.1108196	-0.1344500	-1.7298693	0	-0.0067662	0.0031040	0.0026347
H	-0.1501400	-0.6443197	-1.6405694	0	0.0025457	-0.0016492	-0.0052389
H	-1.8812393	-0.8754396	-1.9585992	0	0.0003494	0.0003128	0.0008971
H	-1.0597096	0.5610998	-2.5698490	0	-0.0026399	0.0018767	-0.0026694
O	-1.4962594	-0.2967599	0.6623397	0	-0.0006023	0.0073720	0.0084154
H	-2.1307492	-0.9842296	0.4555798	0	0.0008335	-0.0014561	-0.0007051
H	-2.4051590	1.1035496	-0.5473398	0	-0.0020823	0.0030117	-0.0023806
H	-0.2942499	2.4049191	-0.9154897	0	0.0018397	0.0018559	-0.0015008
H	0.2173799	0.9773896	1.7437993	0	-0.0016973	-0.0025305	0.0002646
H	1.0519896	2.5056590	1.1023696	0	-0.0008710	0.0030420	0.0037819
