13
Properties=species:S:1:pos:R:3:molID:I:1:forces_dft:R:3 Nmols=1 Comp=VC(1) energy_dft=-5314.638173387725 pbc="F F F"
C	1.8532792	0.5708098	0.7297497	0	0.0022685	0.0034878	0.0023024
C	0.6549897	0.7523897	0.1935299	0	-0.0010176	-0.0021759	-0.0017135
C	-0.5672198	0.0235900	0.5787998	0	-0.0090600	0.0009448	-0.0038328
H	-0.4349998	-0.7026497	1.3727694	0	0.0033016	-0.0008846	0.0026392
C	-1.5860694	-0.3204599	-0.4761598	0	0.0040052	-0.0014699	0.0084927
H	-1.3758795	-0.0076600	-1.4911094	0	0.0020104	0.0014991	-0.0011107
H	-2.0885592	-1.2752595	-0.3975498	0	-0.0041189	-0.0013221	0.0005491
C	-1.8953692	0.7328097	0.5361998	0	0.0046811	-0.0033914	0.0046542
H	-1.8964992	1.7660393	0.2124299	0	0.0010032	0.0041424	-0.0019510
H	-2.6126990	0.5065598	1.3136395	0	-0.0020594	0.0021123	-0.0009401
H	0.5330598	1.4917494	-0.5966098	0	-0.0041304	-0.0017195	-0.0036902
H	2.7121589	1.1408296	0.3988899	0	0.0022982	-0.0006688	-0.0044978
H	2.0176592	-0.1562699	1.5179494	0	0.0021010	-0.0010206	0.0013303
