6
Properties=species:S:1:pos:R:3:molID:I:1:forces_dft:R:3 Nmols=1 Comp=VC(2) energy_dft=-3149.397210276649 pbc="F F F"
O	1.5933494	1.0752796	1.0197296	0	0.0058239	0.0066986	0.0073302
C	2.4286591	-0.0617000	0.9726196	0	-0.0097673	0.0009858	0.0018275
H	2.4771190	-0.4995298	-0.0309400	0	0.0020208	-0.0011730	-0.0039052
H	3.4299986	0.2657099	1.2501595	0	0.0030291	-0.0003499	0.0027695
H	2.1143192	-0.8370097	1.6805893	0	0.0039528	-0.0049410	-0.0004057
H	0.7042097	0.8136097	0.7789997	0	-0.0037244	-0.0034078	-0.0024005
