6
Properties=species:S:1:pos:R:3:molID:I:1:forces_dft:R:3 Nmols=1 Comp=VC(1) energy_dft=-2138.594186703769 pbc="F F F"
C	-1.9669792	-1.0962396	0.2636199	0	-0.0023150	-0.0021721	-0.0032911
C	-2.3775291	-0.1127899	-0.5184098	0	0.0022114	0.0022240	0.0032405
H	-2.2633591	0.9268497	-0.2330499	0	0.0022619	0.0036158	0.0013904
H	-2.8443389	-0.3053999	-1.4777394	0	0.0001305	-0.0041201	-0.0033887
H	-2.0811792	-2.1358492	-0.0218100	0	-0.0022676	-0.0032822	-0.0013979
H	-1.5001394	-0.9037496	1.2229595	0	-0.0000138	0.0037309	0.0034496
