3
Properties=species:S:1:pos:R:3:molID:I:1:forces_dft:R:3 Nmols=1 Comp=VC(2) energy_dft=-2080.011725222562 pbc="F F F"
O	0.2921199	3.1331988	1.2597895	0	-0.0054723	0.0003437	-0.0032102
H	1.2074295	3.3906787	1.3774195	0	0.0052696	0.0025411	0.0000076
H	0.2981899	2.4854890	0.5539998	0	-0.0005379	-0.0007673	-0.0011038
