3
Properties=species:S:1:pos:R:3:molID:I:1:forces_dft:R:3 Nmols=1 Comp=VC(2) energy_dft=-2080.011645307225 pbc="F F F"
O	1.3915094	-1.5693394	1.4056594	0	-0.0030779	-0.0086300	-0.0033770
H	1.9999292	-2.3087891	1.4329395	0	-0.0003057	-0.0003954	0.0017608
H	1.6553694	-1.0499896	0.6451597	0	0.0009132	-0.0005651	0.0006978
