15
Properties=species:S:1:pos:R:3:molID:I:1:forces_dft:R:3 Nmols=1 Comp=VC(1) energy_dft=-6820.785463544797 pbc="F F F"
C	1.1542195	0.6449898	-1.4783194	0	0.0045328	-0.0063322	0.0048942
C	0.7688197	-0.4408598	-0.5145998	0	-0.0095739	-0.0038141	-0.0058342
H	0.6675597	-1.4357994	-0.9440396	0	-0.0017782	-0.0024053	-0.0015059
C	1.1800395	-0.4182399	0.9149596	0	-0.0028747	0.0037288	-0.0007713
H	1.7539693	0.4175598	1.3003195	0	0.0004049	0.0026890	0.0010508
H	1.3641895	-1.3739194	1.3966795	0	0.0009307	-0.0004203	0.0009070
N	-0.1818899	-0.1176800	0.5205798	0	0.0072426	0.0044642	-0.0036859
C	-1.2134895	-0.9973696	0.8557496	0	-0.0075928	0.0068428	0.0031127
C	-1.9531792	-1.6916593	-0.0010100	0	0.0031053	0.0021366	-0.0042696
H	-1.7771893	-1.6556494	-1.0695396	0	0.0024355	-0.0010725	-0.0041687
H	-2.7780189	-2.2936991	0.3532399	0	-0.0018900	0.0005904	0.0030364
H	-1.4186395	-1.0310596	1.9220392	0	-0.0011278	0.0035639	0.0044207
H	0.4117198	0.7406097	-2.2729791	0	-0.0008825	0.0017039	-0.0018565
H	2.1202792	0.4273799	-1.9384492	0	0.0039972	-0.0077092	-0.0024299
H	1.2219495	1.6038694	-0.9631796	0	-0.0031560	0.0014960	0.0036560
