12
Properties=species:S:1:pos:R:3:molID:I:1:forces_dft:R:3 Nmols=1 Comp=VC(1) energy_dft=-7329.164000160463 pbc="F F F"
C	-1.5539894	-0.5139498	0.3902598	0	0.0080532	0.0024116	0.0006329
C	-0.0728400	-0.5786798	0.4202698	0	0.0064516	0.0056552	0.0014533
C	0.8611197	-1.2322295	1.1279796	0	0.0048474	0.0130889	0.0091532
H	0.7852497	-1.9456093	1.9392092	0	0.0027454	-0.0008940	0.0008244
C	2.0743392	-0.6530498	0.4209498	0	-0.0001459	-0.0012928	0.0002355
H	2.7301689	-0.0156100	1.0167896	0	0.0019448	-0.0056980	-0.0063315
H	2.6748190	-1.3501095	-0.1669699	0	-0.0039513	-0.0039076	-0.0048488
C	0.9856796	0.0996700	-0.3848598	0	-0.0005039	0.0043878	0.0171111
O	1.0062396	0.8903197	-1.2797995	0	-0.0068739	-0.0212551	-0.0210691
H	-1.9975392	-1.1407796	1.1638596	0	-0.0023774	-0.0022510	-0.0012092
H	-1.8932993	0.5136898	0.5331098	0	0.0000287	0.0005105	-0.0059001
H	-1.9288293	-0.8423397	-0.5814598	0	-0.0049064	-0.0017014	-0.0066437
