3
Properties=species:S:1:pos:R:3:molID:I:1:forces_dft:R:3 Nmols=1 Comp=VC(2) energy_dft=-2080.011557499030 pbc="F F F"
O	-1.2894195	1.2824295	2.2520991	0	-0.0035614	-0.0029171	0.0046661
H	-0.5096198	0.7774397	2.0183992	0	0.0000905	0.0003703	0.0002730
H	-1.0991296	1.6624493	3.1107088	0	0.0004431	0.0017004	0.0027864
