10
Properties=species:S:1:pos:R:3:molID:I:1:forces_dft:R:3 Nmols=1 Comp=VC(2) energy_dft=-5718.833958538858 pbc="F F F"
C	-0.4590598	-1.4900494	0.5894798	0	-0.0053980	0.0016443	-0.0011071
C	-1.4183695	-0.8099797	-0.0288600	0	0.0054383	0.0040561	-0.0004197
C	-1.4889794	0.6869097	-0.1222399	0	-0.0036449	-0.0034268	-0.0009840
H	-2.4107791	1.0582196	0.3292098	0	-0.0016440	0.0001022	0.0039672
H	-0.6398898	1.1404996	0.3870498	0	0.0037764	-0.0006799	0.0033573
H	-1.4856694	1.0073196	-1.1657695	0	-0.0022694	0.0031982	-0.0043787
C	-2.4876990	-1.5317794	-0.6711997	0	0.0031847	-0.0024503	0.0019874
N	-3.3529287	-2.0784792	-1.1928295	0	0.0003954	-0.0004381	0.0012613
H	-0.4621698	-2.5715190	0.6228097	0	0.0012747	-0.0052328	0.0004059
H	0.3566999	-0.9718296	1.0785296	0	0.0043248	0.0007189	-0.0003781
