6
Properties=species:S:1:pos:R:3:molID:I:1:forces_dft:R:3 Nmols=1 Comp=VC(1) energy_dft=-3149.396920094388 pbc="F F F"
C	2.5691590	0.8460297	-1.5632094	0	-0.0099779	-0.0014038	0.0019563
O	1.1689596	0.9701696	-1.4348095	0	0.0017198	-0.0043507	0.0017729
H	0.7950397	0.1008700	-1.2883095	0	-0.0013725	-0.0029615	0.0007066
H	2.8534189	0.2249799	-2.4203490	0	0.0018001	-0.0017785	-0.0013273
H	2.9654989	1.8483393	-1.7220993	0	-0.0012112	0.0046330	-0.0002161
H	3.0327088	0.4336098	-0.6597997	0	0.0021519	0.0022026	0.0021167
