11
Properties=species:S:1:pos:R:3:molID:I:1:forces_dft:R:3 Nmols=1 Comp=VC(2) energy_dft=-6291.638961077625 pbc="F F F"
C	-0.4711498	-1.3463495	-1.1275396	0	0.0010133	-0.0009321	0.0018826
H	-0.4857598	-1.3906195	-2.2020191	0	0.0001234	0.0016536	-0.0042927
C	0.3849899	-1.6258593	-0.1493799	0	0.0063075	0.0037620	-0.0017448
H	1.3886295	-2.0068692	-0.0157000	0	0.0005337	-0.0030698	0.0022114
O	-0.3923898	-1.2882595	0.9317496	0	0.0028551	-0.0134061	-0.0010982
C	-1.4442895	-0.9493996	-0.0438700	0	0.0114614	0.0047976	0.0032875
C	-1.8810392	0.4840798	0.0808700	0	-0.0008029	-0.0033869	-0.0024641
H	-2.6004290	0.7228797	-0.7051297	0	-0.0017381	0.0023613	-0.0006665
H	-2.3598391	0.6549097	1.0465896	0	-0.0055293	0.0016255	0.0026295
H	-1.0236196	1.1508795	-0.0149300	0	-0.0005035	-0.0012086	-0.0018383
H	-2.2725391	-1.6477693	0.0980200	0	-0.0037945	-0.0009205	0.0032961
