3
Properties=species:S:1:pos:R:3:molID:I:1:forces_dft:R:3 Nmols=1 Comp=VC(2) energy_dft=-2080.011455212167 pbc="F F F"
O	-0.6989397	1.6274494	-1.7002293	0	-0.0029425	-0.0035914	0.0052364
H	0.1946199	1.2874995	-1.6381694	0	0.0028798	-0.0028643	-0.0016997
H	-1.2233195	0.9034897	-2.0446192	0	0.0020699	0.0009083	0.0012267
