3
Properties=species:S:1:pos:R:3:molID:I:1:forces_dft:R:3 Nmols=1 Comp=VC(2) energy_dft=-2080.011563936676 pbc="F F F"
O	-0.4412898	2.0459992	-1.8133993	0	0.0073207	-0.0017268	0.0019012
H	-1.3087195	1.9350093	-1.4220794	0	-0.0020274	-0.0000839	0.0037264
H	0.1793099	1.7622093	-1.1411196	0	-0.0038645	0.0007045	-0.0010953
