6
Properties=species:S:1:pos:R:3:molID:I:1:forces_dft:R:3 Nmols=1 Comp=VC(1) energy_dft=-3149.396492971927 pbc="F F F"
C	2.0469392	-0.9897896	-0.4109798	0	-0.0014996	-0.0014022	0.0024368
O	1.9102293	0.4154198	-0.4099398	0	0.0023873	0.0026838	0.0006774
H	1.2121295	0.6558598	0.1996699	0	0.0005677	-0.0010013	-0.0024879
H	2.3293791	-1.3792995	0.5736798	0	-0.0016825	-0.0004977	0.0027195
H	2.8428789	-1.2319195	-1.1142695	0	0.0011620	0.0005096	-0.0001194
H	1.1322495	-1.4942294	-0.7424297	0	-0.0015842	0.0015871	-0.0015353
