3
Properties=species:S:1:pos:R:3:molID:I:1:forces_dft:R:3 Nmols=1 Comp=VC(2) energy_dft=-2080.011645730171 pbc="F F F"
O	-0.2147699	2.5246290	1.0336796	0	-0.0002957	0.0000226	0.0108359
H	-0.0631700	3.1608987	0.3336399	0	0.0013916	-0.0000034	-0.0039344
H	-0.3425899	1.6847293	0.5908998	0	0.0001260	-0.0004236	-0.0037642
