12
Properties=species:S:1:pos:R:3:molID:I:1:forces_dft:R:3 Nmols=1 Comp=VC(1) energy_dft=-5750.641218152149 pbc="F F F"
C	-1.6780493	0.7209697	-1.1447496	0	0.0062461	0.0052203	0.0010640
C	-0.5535298	1.0296196	-0.2049999	0	0.0050497	-0.0026347	-0.0000856
C	0.6258698	0.4513598	-0.2637799	0	-0.0009846	-0.0013152	0.0040736
C	1.5550494	-0.5207898	-0.7975597	0	0.0039247	0.0067055	0.0080745
H	2.0919092	-0.3369999	-1.7210293	0	-0.0004596	0.0016468	-0.0029183
H	1.3924994	-1.5670594	-0.5570598	0	-0.0003806	-0.0031986	0.0030238
N	1.8979993	0.4166798	0.3085299	0	-0.0061606	-0.0006851	-0.0102872
H	1.9243192	-0.0309800	1.2171095	0	-0.0018983	-0.0042387	0.0038577
H	-0.7203297	1.7775793	0.5644698	0	-0.0050368	0.0007093	0.0002621
H	-2.5467990	0.3271199	-0.6106798	0	-0.0028489	0.0035104	-0.0028120
H	-2.0077992	1.6190194	-1.6735194	0	-0.0044029	0.0023206	0.0005167
H	-1.3761594	-0.0182500	-1.8876792	0	-0.0051176	-0.0037487	-0.0030644
