13
Properties=species:S:1:pos:R:3:molID:I:1:forces_dft:R:3 Nmols=1 Comp=VC(1) energy_dft=-7799.473076239426 pbc="F F F"
C	-0.6050898	1.3159695	0.2150899	0	0.0075821	-0.0027382	-0.0154855
C	-0.3813599	-0.0501100	-0.4349198	0	-0.0083680	-0.0004610	0.0119575
C	0.8448697	-0.7737397	0.1227800	0	0.0169607	0.0106458	-0.0058711
O	1.9696392	0.0183000	-0.1864000	0	-0.0118168	-0.0022904	0.0119626
C	-1.5576994	-0.9085897	-0.2722699	0	-0.0034676	-0.0024995	-0.0008146
N	-2.4737890	-1.5834194	-0.1250100	0	0.0118859	-0.0058778	-0.0003162
H	-1.4639894	1.8194593	-0.2276299	0	-0.0038021	0.0002319	0.0031023
H	-0.7862897	1.2063495	1.2857095	0	-0.0002635	-0.0011251	0.0047497
H	0.2802799	1.9328393	0.0717799	0	0.0016091	0.0024616	-0.0002877
H	-0.2244099	0.0808300	-1.5098794	0	0.0009416	-0.0002500	-0.0035888
H	0.9187296	-1.7676793	-0.3328099	0	-0.0052196	-0.0026404	-0.0014257
H	0.7269997	-0.9016497	1.2063895	0	-0.0029839	-0.0031248	0.0063449
H	2.7521089	-0.3885499	0.1871699	0	0.0022894	-0.0026677	0.0019327
