14
Properties=species:S:1:pos:R:3:molID:I:1:forces_dft:R:3 Nmols=1 Comp=VC(1) energy_dft=-8373.543873038852 pbc="F F F"
C	-0.8434697	1.1761095	-0.1102900	0	0.0018012	0.0006547	-0.0230726
C	0.0929499	-0.0258900	-0.2408399	0	-0.0028390	0.0159120	-0.0022842
C	1.2115895	0.0267200	0.8004997	0	0.0036092	-0.0066360	0.0036458
O	0.6458397	-0.0595300	-1.5313494	0	-0.0042313	0.0080172	-0.0007233
C	-0.7152197	-1.2876095	-0.0114300	0	0.0056859	-0.0169236	-0.0204426
O	-0.8287697	-2.1448092	-0.8454497	0	0.0017181	0.0199674	0.0087395
H	-0.2706999	2.0903692	-0.2682399	0	0.0021926	0.0024338	-0.0031734
H	-1.6287993	1.1283696	-0.8657597	0	-0.0019559	-0.0005816	0.0004202
H	-1.3039895	1.2229695	0.8790297	0	-0.0062998	-0.0026294	0.0034749
H	1.8727293	-0.8341097	0.6921697	0	0.0011155	-0.0026409	0.0019786
H	0.8142297	0.0449400	1.8177193	0	0.0006323	-0.0070535	0.0025295
H	1.7996093	0.9312996	0.6429597	0	0.0023323	0.0020966	0.0042716
H	0.3585599	-0.8887196	-1.9368593	0	-0.0032772	-0.0048772	0.0050872
H	-1.2045795	-1.3801394	0.9778196	0	-0.0016486	0.0043058	0.0007564
