15
Properties=species:S:1:pos:R:3:molID:I:1:forces_dft:R:3 Nmols=1 Comp=VC(1) energy_dft=-6359.201703597348 pbc="F F F"
C	-2.2012991	0.0583400	-0.1297300	0	0.0013928	0.0100265	0.0049291
C	-0.7897397	0.6130198	0.0101100	0	-0.0026081	-0.0031021	-0.0027043
C	0.2762699	-0.4750198	-0.0299100	0	0.0009048	0.0065716	0.0014837
C	1.6802393	0.0729300	0.1097999	0	0.0075575	-0.0088702	-0.0017445
O	2.5901390	-1.0118896	0.0670199	0	-0.0109130	-0.0171382	0.0061064
H	-2.3214491	-0.4736098	-1.0764796	0	0.0023653	-0.0033242	-0.0003161
H	-2.4274490	-0.6459597	0.6744097	0	0.0010618	-0.0000641	0.0024265
H	-2.9484188	0.8532697	-0.0961400	0	-0.0020705	0.0039971	0.0022852
H	-0.6016998	1.3380794	-0.7890397	0	-0.0011298	-0.0005199	-0.0043170
H	-0.7090097	1.1691895	0.9501896	0	-0.0044036	0.0055187	-0.0010932
H	0.2115999	-1.0306396	-0.9705796	0	0.0038858	-0.0039223	0.0016451
H	0.1033300	-1.1990295	0.7724497	0	0.0003317	0.0010139	0.0039392
H	1.8842693	0.7837697	-0.7028697	0	-0.0004594	-0.0000802	-0.0025577
H	1.7715793	0.6199597	1.0583696	0	-0.0034618	0.0041332	-0.0003955
H	3.4816286	-0.6724097	0.1524000	0	0.0041799	0.0012987	-0.0012348
