16
Properties=species:S:1:pos:R:3:molID:I:1:forces_dft:R:3 Nmols=1 Comp=VC(1) energy_dft=-8406.356175835881 pbc="F F F"
C	-1.6124094	-0.7280797	0.2000999	0	0.0074424	-0.0054084	-0.0095717
C	-0.4338598	0.1738999	-0.1519099	0	0.0002229	-0.0017628	0.0040429
C	0.6327697	-0.6404497	-0.8666197	0	0.0036675	0.0079176	-0.0034450
O	1.7272493	0.2026199	-1.2099995	0	0.0066076	0.0050742	0.0080769
C	0.1149599	0.8554196	1.1022896	0	0.0059947	0.0053156	-0.0045114
O	0.9767396	1.9357993	0.8356496	0	0.0134673	-0.0068094	-0.0071944
H	-2.0024892	-1.2407595	-0.6814898	0	0.0017426	-0.0005731	-0.0021279
H	-1.3226995	-1.4910294	0.9283996	0	-0.0050385	-0.0025803	0.0039925
H	-2.4284290	-0.1495499	0.6353197	0	-0.0034147	0.0005858	-0.0053898
H	-0.7709697	0.9625396	-0.8332397	0	-0.0029582	0.0012586	-0.0000809
H	0.2099799	-1.0951596	-1.7706793	0	-0.0008465	-0.0019556	-0.0011389
H	0.9706296	-1.4503594	-0.2052799	0	0.0027689	-0.0008206	0.0018890
H	2.4373190	-0.3296099	-1.5695594	0	0.0002188	-0.0004949	0.0003881
H	-0.7157997	1.2609395	1.6852093	0	-0.0058973	-0.0019406	0.0011780
H	0.6114298	0.0982200	1.7312393	0	0.0005400	-0.0019013	0.0020463
H	1.6055594	1.6355694	0.1705999	0	-0.0014510	-0.0047798	-0.0029197
