13
Properties=species:S:1:pos:R:3:molID:I:1:forces_dft:R:3 Nmols=1 Comp=VC(1) energy_dft=-7336.427637164864 pbc="F F F"
O	-0.8195397	1.4034694	0.5336598	0	-0.0004149	-0.0036148	0.0108111
C	-1.1717395	0.0496700	0.2616299	0	-0.0003121	0.0035398	0.0038629
C	-0.1441199	-0.5403998	-0.6831197	0	-0.0006142	-0.0027975	0.0018420
C	1.2723695	-0.5355598	-0.1206000	0	-0.0004584	0.0023130	-0.0005047
O	1.8513593	0.7487197	-0.0811900	0	-0.0008593	-0.0051195	-0.0081201
H	-1.4095795	1.7581393	1.1991995	0	0.0020820	-0.0022639	-0.0019209
H	-2.1702391	0.0026900	-0.1881899	0	-0.0010849	0.0009657	-0.0036730
H	-1.1904996	-0.5283498	1.1946695	0	0.0003437	0.0015385	0.0024228
H	-0.1550899	0.0098200	-1.6282294	0	0.0019178	-0.0014341	-0.0023073
H	-0.4407498	-1.5709294	-0.9013796	0	-0.0017689	-0.0025996	0.0028488
H	1.2673495	-0.9952196	0.8801896	0	-0.0028060	-0.0050731	0.0010893
H	1.9210793	-1.1472595	-0.7511297	0	0.0031360	-0.0001645	-0.0010460
H	1.1893996	1.3452095	0.2844899	0	-0.0033375	0.0014093	-0.0028272
