14
Properties=species:S:1:pos:R:3:molID:I:1:forces_dft:R:3 Nmols=1 Comp=VC(1) energy_dft=-8373.282905563652 pbc="F F F"
O	1.8485793	0.6141498	0.7090397	0	0.0004569	-0.0046534	-0.0053294
C	1.3322295	-0.0915700	-0.4101399	0	-0.0039543	0.0037089	0.0106001
C	0.1530399	-0.9225696	0.0573900	0	0.0037638	0.0018077	-0.0003036
C	-0.9809796	-0.0843700	0.6276397	0	0.0081359	0.0034900	0.0049096
C	-1.7804393	0.6772997	-0.3902998	0	0.0055988	0.0025089	-0.0129231
O	-1.6284593	0.6127498	-1.5805994	0	-0.0065794	-0.0024588	0.0074275
H	2.5293190	1.2166695	0.4086598	0	0.0014396	0.0007114	-0.0000847
H	2.0965692	-0.7544797	-0.8333897	0	0.0026131	0.0023964	-0.0003206
H	1.0135096	0.6023397	-1.1953795	0	0.0028448	0.0003338	-0.0055034
H	0.5020998	-1.6211393	0.8215197	0	0.0028023	-0.0003256	0.0021995
H	-0.2107899	-1.5125994	-0.7867097	0	-0.0045196	0.0004852	-0.0016882
H	-1.6983093	-0.7051297	1.1777695	0	-0.0001194	0.0021117	-0.0007569
H	-0.6048498	0.6368398	1.3610195	0	0.0012642	-0.0002979	0.0026149
H	-2.5715390	1.3318195	0.0334800	0	-0.0035003	-0.0010918	0.0037203
