15
Properties=species:S:1:pos:R:3:molID:I:1:forces_dft:R:3 Nmols=1 Comp=VC(1) energy_dft=-7831.502873006340 pbc="F F F"
C	-1.8643893	0.6506597	-0.1078600	0	-0.0015723	-0.0004197	-0.0047949
N	-0.5236098	0.2556699	-0.4860498	0	0.0049291	0.0011029	0.0057726
C	-0.2341099	-1.1686096	-0.4933998	0	0.0013229	0.0025207	0.0035824
C	0.3295999	-0.2845499	0.5504798	0	-0.0025363	0.0124041	-0.0025549
C	1.7644793	0.1904200	0.5158698	0	0.0038582	-0.0000477	-0.0050676
O	2.2030792	0.4244898	-0.7977197	0	-0.0062744	0.0032311	0.0071405
H	-2.5064290	0.6423198	-0.9899696	0	0.0010859	0.0028460	-0.0014601
H	-2.3056191	-0.0133200	0.6495797	0	-0.0047388	0.0016871	0.0033480
H	-1.8444593	1.6654794	0.2926199	0	-0.0017540	0.0026668	0.0011141
H	-1.0346596	-1.8417793	-0.1998799	0	-0.0004692	-0.0032990	0.0047751
H	0.3943398	-1.5161994	-1.3045295	0	0.0003575	-0.0003735	-0.0004476
H	-0.1031200	-0.3731098	1.5454094	0	-0.0013954	0.0062577	0.0018328
H	2.4217591	-0.5636598	0.9556896	0	0.0006913	-0.0032521	0.0022531
H	1.8474893	1.1018495	1.1252195	0	-0.0032196	0.0016409	0.0021321
H	1.4556594	0.8303297	-1.2554595	0	0.0002785	-0.0020268	-0.0011986
