16
Properties=species:S:1:pos:R:3:molID:I:1:forces_dft:R:3 Nmols=1 Comp=VC(1) energy_dft=-7395.392603247567 pbc="F F F"
O	2.6482489	0.2081299	0.2640499	0	-0.0067750	-0.0051809	0.0065674
C	1.5108894	-0.5795398	0.5619198	0	-0.0000460	0.0077463	-0.0057214
C	0.3277599	-0.2561499	-0.3201199	0	0.0021726	-0.0063574	-0.0032437
C	-1.0188396	-0.9517196	-0.0267200	0	-0.0012540	0.0012076	-0.0045833
C	-1.7310793	0.3801499	-0.3412199	0	0.0020747	0.0025823	0.0055199
C	-0.3847498	1.1044796	-0.1330700	0	0.0047406	-0.0015619	-0.0066112
H	2.4148391	1.1308396	0.3845799	0	-0.0012985	0.0055194	-0.0010410
H	1.8182093	-1.6181194	0.4177998	0	-0.0001866	-0.0035985	-0.0032560
H	1.2248195	-0.4657298	1.6182093	0	-0.0052656	0.0030090	0.0049976
H	0.6118997	-0.3924898	-1.3670395	0	-0.0000242	-0.0021859	-0.0033791
H	-1.1066195	-1.2118295	1.0313796	0	-0.0052063	0.0004252	0.0036840
H	-1.2795595	-1.8260093	-0.6229498	0	-0.0002504	-0.0027232	-0.0008116
H	-2.0537692	0.4264798	-1.3822794	0	-0.0021352	0.0047542	-0.0046401
H	-2.5664190	0.6711197	0.2952199	0	-0.0007525	-0.0018789	-0.0010991
H	-0.2829299	1.4655894	0.8948296	0	0.0001236	0.0010863	0.0023616
H	-0.1327000	1.9147992	-0.8175697	0	-0.0038145	-0.0007276	-0.0013708
