13
Properties=species:S:1:pos:R:3:molID:I:1:forces_dft:R:3 Nmols=1 Comp=VC(1) energy_dft=-6325.438846919963 pbc="F F F"
O	2.1804791	-0.7567797	0.0610000	0	-0.0063322	0.0049726	-0.0024585
C	1.2468095	0.2477999	0.4055498	0	0.0082344	-0.0098346	-0.0100212
C	0.0440100	0.2538499	-0.4944998	0	-0.0075064	0.0009156	0.0086893
C	-1.2620895	0.7803097	0.0115600	0	0.0034113	-0.0054993	0.0002782
C	-1.0883396	-0.6927997	-0.2106299	0	0.0017803	-0.0039334	-0.0009245
H	1.7075594	-1.5898594	0.0020500	0	-0.0026820	-0.0045299	0.0005194
H	1.7872193	1.1937695	0.3325999	0	0.0007600	0.0031681	0.0041867
H	0.9191897	0.1369600	1.4498094	0	-0.0006685	0.0009455	0.0051054
H	0.2687799	0.4338098	-1.5400994	0	0.0014966	-0.0000738	-0.0034305
H	-1.3011395	1.1327996	1.0350196	0	-0.0011734	0.0057416	0.0030079
H	-1.8902792	1.3336995	-0.6732197	0	-0.0009431	0.0006972	-0.0013048
H	-1.0134596	-1.3230695	0.6682197	0	-0.0007243	-0.0003147	0.0010103
H	-1.5987394	-1.1504895	-1.0473796	0	-0.0009883	-0.0000399	-0.0028580
