13
Properties=species:S:1:pos:R:3:molID:I:1:forces_dft:R:3 Nmols=1 Comp=VC(1) energy_dft=-7799.039411769831 pbc="F F F"
C	-1.9200693	-0.6348997	-0.0472100	0	0.0032948	-0.0001874	0.0005785
C	-0.5959498	-0.1135300	-0.5492098	0	0.0021503	0.0009187	0.0076831
O	0.1560400	0.3370799	0.5677698	0	0.0090871	-0.0011519	-0.0056609
C	1.3896194	0.8868796	0.2322399	0	-0.0095483	-0.0025797	0.0013612
C	2.3375891	-0.1094899	-0.3105799	0	0.0033030	0.0014176	0.0012536
N	3.0661988	-0.8850196	-0.7378997	0	-0.0024503	-0.0014226	-0.0014950
H	-2.4698690	0.1496499	0.4738798	0	-0.0028477	0.0005520	0.0033658
H	-2.5254190	-0.9859596	-0.8841497	0	-0.0001377	-0.0023194	-0.0037420
H	-1.7662993	-1.4658194	0.6417298	0	0.0011286	-0.0002472	0.0013983
H	-0.7421997	0.7203597	-1.2497895	0	-0.0032464	0.0007690	-0.0040292
H	-0.0418000	-0.9002696	-1.0764096	0	-0.0007630	-0.0012238	-0.0026325
H	1.8201093	1.3076395	1.1414095	0	0.0008455	-0.0008248	0.0016277
H	1.2920595	1.6933893	-0.5067798	0	-0.0035404	0.0016588	0.0003153
