16
Properties=species:S:1:pos:R:3:molID:I:1:forces_dft:R:3 Nmols=1 Comp=VC(1) energy_dft=-8867.758554254840 pbc="F F F"
C	1.3036395	-1.1764995	0.0723000	0	0.0017181	0.0095960	0.0045531
C	0.6456198	0.1799899	0.0139400	0	0.0109001	-0.0000126	-0.0004351
O	1.6734793	1.1317795	0.1999899	0	-0.0036716	-0.0156956	0.0011871
C	-0.2896599	0.5331898	-1.1686695	0	-0.0058866	0.0072314	0.0009261
N	-1.3974795	0.9441296	-0.2499499	0	-0.0105800	-0.0106629	0.0072503
C	-1.7616793	-0.2685699	0.4752398	0	0.0063614	0.0036136	-0.0044213
C	-0.5631698	0.4616198	0.9052697	0	0.0006319	-0.0055885	0.0050215
H	0.5739598	-1.9766292	-0.0516700	0	-0.0016976	-0.0020774	-0.0032218
H	1.8069893	-1.3037795	1.0317596	0	0.0030581	0.0039223	0.0011704
H	2.0493192	-1.2624395	-0.7199297	0	0.0005657	-0.0004685	-0.0043041
H	1.2865995	2.0110792	0.1954399	0	-0.0055827	0.0060427	0.0008207
H	-0.5659398	-0.2737499	-1.8522192	0	-0.0020873	0.0009168	-0.0032163
H	0.0730400	1.3836495	-1.7456293	0	0.0009975	0.0043136	-0.0010152
H	-1.6689593	-1.2267895	-0.0273500	0	-0.0008615	-0.0021675	0.0006049
H	-2.6554989	-0.1587799	1.0768996	0	-0.0015665	-0.0016839	0.0030470
H	-0.5102398	1.0018096	1.8445793	0	-0.0001850	-0.0003856	0.0024572
