17
Properties=species:S:1:pos:R:3:molID:I:1:forces_dft:R:3 Nmols=1 Comp=VC(1) energy_dft=-9442.682133287546 pbc="F F F"
C	-1.5345894	-0.5212898	-0.5761798	0	-0.0026415	0.0090624	0.0059033
C	-0.6599098	0.1065599	0.4931798	0	0.0095069	-0.0044162	0.0061208
C	0.6051198	-0.7078897	0.8366697	0	-0.0045453	0.0003230	-0.0058578
O	0.5020598	-2.0859592	0.5805098	0	0.0074452	0.0049908	-0.0024614
C	1.4141094	0.1719399	-0.1358099	0	0.0026295	0.0040046	0.0077217
C	0.2980199	1.2128595	-0.0360500	0	-0.0047248	-0.0004279	-0.0052623
O	0.0058100	1.8506693	-1.2535395	0	0.0100443	0.0077994	-0.0032534
H	-2.3141691	0.1765499	-0.8872796	0	-0.0020367	0.0015028	-0.0008374
H	-2.0114192	-1.4236194	-0.1930799	0	-0.0044925	-0.0020198	-0.0009777
H	-0.9625296	-0.7954197	-1.4623394	0	0.0014716	0.0002118	-0.0043489
H	-1.2688795	0.3902598	1.3544495	0	-0.0022112	0.0011043	-0.0019784
H	0.9068696	-0.5323198	1.8757993	0	0.0005091	0.0011284	0.0037932
H	1.3477695	-2.4980090	0.7640997	0	0.0017796	-0.0022730	-0.0027183
H	2.4277990	0.4676098	0.1338899	0	0.0025999	0.0011404	0.0021869
H	1.4121095	-0.2724499	-1.1322695	0	0.0028925	-0.0034837	-0.0018178
H	0.5082098	1.9525292	0.7446797	0	-0.0018782	0.0010914	0.0035763
H	-0.6763698	2.5079790	-1.1067296	0	0.0015843	-0.0000807	0.0022386
