11
Properties=species:S:1:pos:R:3:molID:I:1:forces_dft:R:3 Nmols=1 Comp=VC(1) energy_dft=-7303.291562090508 pbc="F F F"
O	-1.3440395	0.5859298	-0.8622597	0	-0.0073916	-0.0004877	-0.0018285
C	-0.9300096	-0.1812700	0.2531799	0	0.0012361	0.0044277	-0.0070021
C	0.4977098	-0.6327898	0.0024300	0	0.0082402	-0.0019053	0.0032093
C	1.4794394	0.5101998	-0.0059500	0	0.0089069	0.0035218	0.0057545
O	2.5858290	0.4448498	0.4571098	0	-0.0078081	-0.0002279	0.0000215
H	-2.2108791	0.9545696	-0.6882997	0	-0.0020893	0.0022197	-0.0001433
H	-1.5716694	-1.0600496	0.3857998	0	-0.0026515	0.0005380	-0.0014605
H	-0.9805796	0.4105699	1.1765896	0	0.0014960	-0.0007451	0.0028947
H	0.5381898	-1.1105396	-0.9827096	0	-0.0000350	-0.0032849	-0.0001567
H	0.8186997	-1.3652995	0.7443697	0	-0.0040750	-0.0014626	0.0030796
H	1.1173096	1.4438294	-0.4802498	0	0.0011863	0.0013175	-0.0015544
