15
Properties=species:S:1:pos:R:3:molID:I:1:forces_dft:R:3 Nmols=1 Comp=VC(1) energy_dft=-10421.101200122877 pbc="F F F"
C	-2.8589989	-0.0037200	-0.2166699	0	0.0061017	-0.0062387	0.0085001
O	-1.6305593	-0.2105299	0.4776698	0	0.0050989	0.0092015	-0.0153145
C	-0.5185198	0.0668200	-0.2145899	0	0.0055050	0.0014617	-0.0038051
O	-0.5285398	0.4657698	-1.3489495	0	0.0023170	-0.0085204	-0.0163845
C	0.7139997	-0.1876399	0.6082998	0	-0.0028610	0.0047346	-0.0031699
C	1.9876592	0.0995399	-0.1563199	0	0.0101930	-0.0031470	0.0078296
O	3.0667788	-0.1807499	0.7161397	0	-0.0006423	-0.0031598	0.0017916
H	-2.9094989	-0.6358598	-1.1033395	0	-0.0010257	-0.0029139	-0.0025922
H	-3.6439585	-0.2701799	0.4861698	0	-0.0022802	0.0004656	0.0025618
H	-2.9577989	1.0385896	-0.5203598	0	-0.0034425	0.0038120	-0.0008101
H	0.6654797	0.4271898	1.5102494	0	-0.0000238	0.0043447	0.0020107
H	0.6998097	-1.2258395	0.9481396	0	-0.0005763	-0.0014646	0.0067213
H	2.0283592	-0.5238898	-1.0562596	0	-0.0023882	-0.0012196	-0.0016841
H	1.9978792	1.1457295	-0.4812598	0	-0.0000848	0.0044689	-0.0008481
H	3.8879185	-0.0052500	0.2555999	0	0.0019382	-0.0005636	-0.0026813
