18
Properties=species:S:1:pos:R:3:molID:I:1:forces_dft:R:3 Nmols=1 Comp=VC(1) energy_dft=-7429.255337948432 pbc="F F F"
C	-1.4688294	1.2976895	-0.2367899	0	-0.0035810	-0.0019005	0.0080771
C	-0.6145898	0.1735399	0.3434398	0	0.0010826	-0.0004516	-0.0082315
C	-1.1390695	-1.1909695	-0.0969499	0	0.0052045	0.0018001	0.0099391
C	0.8608396	0.3837498	-0.0089300	0	-0.0025593	-0.0032934	-0.0136508
C	1.7999693	-0.6132498	0.6522098	0	-0.0050146	-0.0037569	0.0071388
O	0.9758796	0.3266298	-1.4256595	0	-0.0023163	0.0029017	0.0053052
H	-1.1120395	2.2769691	0.0915299	0	0.0010446	0.0032408	-0.0007194
H	-1.4394994	1.2787095	-1.3274595	0	-0.0043136	-0.0009155	-0.0060580
H	-2.5094790	1.1966095	0.0781000	0	-0.0029933	-0.0005334	-0.0003650
H	-0.6734498	0.2314599	1.4369595	0	-0.0012803	0.0013352	0.0019384
H	-0.6235497	-2.0126992	0.4029398	0	-0.0011652	-0.0027091	0.0003435
H	-2.2017891	-1.2824495	0.1364499	0	-0.0037753	-0.0043761	0.0006944
H	-1.0169196	-1.3195995	-1.1737795	0	0.0029150	-0.0048418	-0.0048201
H	1.1325095	1.3941995	0.3318799	0	-0.0024515	0.0041963	-0.0002148
H	2.8418189	-0.3655899	0.4318398	0	0.0043063	-0.0028026	0.0013102
H	1.6118994	-1.6253294	0.2915099	0	0.0000790	-0.0015503	0.0020165
H	1.6810993	-0.6009097	1.7379193	0	0.0011562	-0.0034036	0.0035830
H	1.8951893	0.4512698	-1.6652293	0	0.0052574	-0.0017481	-0.0032859
