19
Properties=species:S:1:pos:R:3:molID:I:1:forces_dft:R:3 Nmols=1 Comp=VC(1) energy_dft=-8465.240506587877 pbc="F F F"
C	-2.2113291	-0.1102500	0.9280696	0	0.0097433	0.0098587	0.0017599
C	-1.2310695	0.8717996	0.2975599	0	-0.0059141	-0.0150263	-0.0155344
C	-0.4082598	0.2484899	-0.8051097	0	0.0000990	0.0057216	0.0149035
C	0.9465396	0.7807697	-1.1628795	0	0.0001004	-0.0065589	0.0082199
C	0.8136297	-0.5894298	-0.5481098	0	0.0058512	0.0063986	0.0030771
C	1.3611695	-0.8456297	0.8282797	0	0.0013076	0.0020367	-0.0029220
O	2.7602589	-1.0646996	0.8092497	0	-0.0075774	-0.0026407	0.0018386
H	-2.8952289	-0.5167598	0.1792299	0	0.0002765	-0.0007055	0.0004458
H	-2.8125589	0.3695399	1.7023893	0	-0.0020825	-0.0006270	0.0001226
H	-1.6859493	-0.9520997	1.3844394	0	0.0050028	-0.0045909	-0.0050757
H	-0.5761898	1.2880895	1.0673396	0	0.0016056	0.0031448	0.0059083
H	-1.7778093	1.7232693	-0.1195000	0	0.0002710	0.0035201	-0.0042992
H	-1.0068096	-0.0911299	-1.6451693	0	-0.0019925	-0.0063678	-0.0004083
H	1.2241995	0.8624997	-2.2054091	0	0.0010397	0.0011002	-0.0041487
H	1.3395495	1.5718394	-0.5322398	0	0.0017575	0.0017668	0.0011239
H	0.9607396	-1.4227695	-1.2267595	0	-0.0038510	0.0011133	-0.0016027
H	1.1119696	-0.0182600	1.5040694	0	-0.0026815	0.0024464	0.0006076
H	0.9272796	-1.7542193	1.2510495	0	-0.0035443	-0.0014049	0.0025822
H	3.1598487	-0.3510599	0.3070099	0	-0.0013920	0.0032005	-0.0022478
