17
Properties=species:S:1:pos:R:3:molID:I:1:forces_dft:R:3 Nmols=1 Comp=VC(1) energy_dft=-9442.794372628890 pbc="F F F"
C	2.6494189	-0.3611399	0.3496099	0	-0.0046508	0.0021556	-0.0014940
O	1.5241194	0.2154099	-0.2604699	0	-0.0117234	-0.0057109	0.0126607
C	0.3296599	-0.4505198	0.0587600	0	0.0034711	0.0068365	-0.0106457
C	-0.8428797	0.2720399	-0.5979997	0	0.0028950	-0.0023938	0.0090455
C	-2.1368992	-0.5142498	-0.4729498	0	0.0048150	0.0062468	-0.0021768
C	-0.9627296	1.6715993	-0.0357900	0	-0.0071959	0.0083862	0.0053765
O	-1.9800892	2.1437392	0.3949498	0	-0.0004769	-0.0022088	-0.0066430
H	2.5738090	-0.3252399	1.4440294	0	-0.0010162	-0.0042807	0.0059700
H	3.5213186	0.2101499	0.0350200	0	0.0029076	0.0006291	-0.0036412
H	2.7785889	-1.4074195	0.0434300	0	0.0045087	-0.0047263	-0.0026937
H	0.1892799	-0.4856198	1.1508295	0	-0.0027168	-0.0000446	0.0043569
H	0.3635698	-1.4904694	-0.2973799	0	0.0007072	-0.0048020	-0.0011657
H	-0.5745798	0.3999099	-1.6549394	0	0.0006741	0.0023454	-0.0020335
H	-2.9660588	0.0291900	-0.9235497	0	-0.0030545	0.0019820	0.0023227
H	-2.0498392	-1.4842794	-0.9651296	0	-0.0049501	-0.0025079	-0.0036440
H	-2.3927391	-0.6810197	0.5752398	0	-0.0009957	0.0056945	0.0034153
H	-0.0239500	2.2579291	-0.0411500	0	0.0035949	-0.0047666	0.0018628
