17
Properties=species:S:1:pos:R:3:molID:I:1:forces_dft:R:3 Nmols=1 Comp=VC(1) energy_dft=-9442.068598045626 pbc="F F F"
C	2.2632791	0.6525798	0.1076499	0	-0.0029223	0.0095793	-0.0039176
O	0.9995396	0.3614399	-0.4413398	0	-0.0075007	-0.0019790	0.0021390
C	0.3859899	-0.7358197	0.1553699	0	0.0010346	-0.0003719	-0.0044212
C	-0.3591298	-0.5533898	1.4434994	0	-0.0042928	0.0024786	0.0048918
C	-1.1027896	-0.7458397	0.1446900	0	0.0066001	0.0048066	-0.0021795
C	-1.8196093	0.4223798	-0.4849998	0	0.0009215	-0.0005578	0.0032853
O	-1.6966593	0.4250698	-1.8918593	0	-0.0028908	-0.0014574	0.0060186
H	2.9619288	-0.1793399	-0.0414800	0	0.0006528	-0.0002089	-0.0032454
H	2.1891692	0.8616096	1.1807895	0	-0.0008967	0.0096357	0.0032477
H	2.6458690	1.5338194	-0.4048698	0	0.0008481	0.0024717	-0.0008066
H	0.9101097	-1.6763193	-0.0020500	0	-0.0000225	-0.0011333	0.0011308
H	-0.3480399	-1.3534695	2.1714491	0	0.0003893	-0.0045119	-0.0000945
H	-0.3695899	0.4459798	1.8620592	0	-0.0022224	0.0007837	0.0014196
H	-1.5669694	-1.7104994	-0.0244100	0	0.0000210	-0.0024145	0.0011422
H	-2.8881088	0.3653898	-0.2693999	0	-0.0049916	-0.0014372	-0.0002314
H	-1.4441694	1.3603195	-0.0606000	0	0.0002689	0.0034328	0.0025597
H	-0.7608197	0.5260998	-2.0870692	0	0.0040698	0.0000837	-0.0020780
