15
Properties=species:S:1:pos:R:3:molID:I:1:forces_dft:R:3 Nmols=1 Comp=VC(1) energy_dft=-7831.837556195868 pbc="F F F"
C	-1.9273893	-0.0713000	-0.1582999	0	-0.0025811	0.0057649	0.0033999
C	-0.6101598	0.6815397	-0.0329500	0	-0.0001523	-0.0053621	0.0016410
O	-0.3849299	1.1000996	1.2944295	0	0.0144793	-0.0025304	-0.0133411
C	0.5476298	-0.1712999	-0.5195898	0	0.0034866	-0.0040260	0.0047618
C	1.9362592	0.0873200	-0.1030100	0	-0.0000039	-0.0066702	0.0009709
N	1.1647595	-0.9916596	0.5178398	0	-0.0113734	0.0126779	0.0013447
H	-2.7440589	0.5381798	0.2286499	0	-0.0027251	-0.0002884	-0.0007426
H	-2.1435192	-0.3206599	-1.2002495	0	0.0001132	-0.0010154	-0.0020093
H	-1.8883992	-0.9996496	0.4173998	0	-0.0006819	-0.0031143	0.0042381
H	-0.6515198	1.5933494	-0.6371297	0	-0.0010641	0.0023497	-0.0024427
H	-0.0219800	0.3326799	1.7564893	0	0.0014346	0.0003719	0.0000133
H	0.4040398	-0.6239297	-1.4967494	0	0.0020831	-0.0010784	-0.0035223
H	2.1462591	0.9240196	0.5517098	0	-0.0018389	0.0008346	0.0016098
H	2.7316589	-0.1790599	-0.7895197	0	-0.0000535	0.0011221	-0.0046760
H	1.4413495	-1.8996293	0.1709899	0	0.0010985	-0.0058553	-0.0050011
