16
Properties=species:S:1:pos:R:3:molID:I:1:forces_dft:R:3 Nmols=1 Comp=VC(1) energy_dft=-7395.136228596298 pbc="F F F"
C	2.3823690	0.0002600	0.1330600	0	-0.0044333	-0.0111849	-0.0124211
O	1.2309995	-0.7035497	0.5202698	0	0.0002938	0.0078038	-0.0016231
C	0.1071300	-0.3638399	-0.2371699	0	0.0000576	-0.0070961	0.0046256
C	-0.5723798	1.0037496	-0.0033700	0	-0.0043153	0.0009812	-0.0012483
C	-1.9282692	0.2716599	-0.1046199	0	0.0053283	0.0102548	0.0085224
C	-1.1900795	-1.0526196	0.1887299	0	0.0016778	-0.0033037	-0.0037712
H	2.2578891	1.0830796	0.2613799	0	0.0020535	0.0045610	-0.0079965
H	2.6377990	-0.1981599	-0.9165396	0	-0.0005090	-0.0003782	-0.0027673
H	3.2018587	-0.3362699	0.7666297	0	0.0025337	-0.0012750	0.0024291
H	0.3116699	-0.5180698	-1.3070895	0	0.0003471	-0.0011174	-0.0049099
H	-0.3794699	1.3419895	1.0167796	0	-0.0038292	0.0004611	0.0033337
H	-0.3680098	1.8153393	-0.7015797	0	-0.0022586	0.0001416	-0.0014952
H	-2.3293891	0.2981799	-1.1184996	0	-0.0030171	0.0038897	-0.0027304
H	-2.7131790	0.5716798	0.5878198	0	-0.0014012	-0.0039715	-0.0012500
H	-1.1560896	-1.2606895	1.2592195	0	-0.0018249	-0.0013542	0.0049064
H	-1.4928494	-1.9527292	-0.3450199	0	-0.0034029	-0.0029461	0.0035789
