13
Properties=species:S:1:pos:R:3:molID:I:1:forces_dft:R:3 Nmols=1 Comp=VC(1) energy_dft=-7797.959304391272 pbc="F F F"
O	1.9300192	0.7142997	0.3200799	0	0.0094684	0.0054647	-0.0103417
C	0.9150496	0.2346699	-0.5068898	0	-0.0018441	0.0004614	0.0065537
C	0.2966099	-1.1718396	-0.1940899	0	0.0021693	0.0020640	0.0089127
C	-1.0424296	-0.4824398	0.0095900	0	-0.0009497	0.0035618	0.0028202
N	-0.8222697	0.5036298	1.0776996	0	0.0055794	-0.0033821	-0.0061680
C	-0.4715098	0.8455496	-0.3092999	0	-0.0061321	-0.0029657	-0.0018735
H	1.5475994	0.7755797	1.2028395	0	-0.0027305	-0.0025791	0.0027265
H	1.2698795	0.3044599	-1.5346094	0	0.0029755	0.0013446	-0.0024747
H	0.6998597	-1.6788993	0.6828797	0	-0.0010525	-0.0032897	0.0004262
H	0.3244799	-1.8358193	-1.0574196	0	-0.0035468	0.0009792	-0.0028627
H	-2.0329992	-0.8642196	-0.1943899	0	-0.0040500	-0.0008822	-0.0000696
H	-1.7055993	0.9489396	1.3006795	0	-0.0029891	0.0033366	0.0016496
H	-0.9087096	1.7060793	-0.7970797	0	0.0009564	0.0035506	0.0002186
