16
Properties=species:S:1:pos:R:3:molID:I:1:forces_dft:R:3 Nmols=1 Comp=VC(1) energy_dft=-7395.050425333622 pbc="F F F"
C	2.5487490	0.3091699	0.0694900	0	-0.0008735	0.0053369	0.0026633
C	1.2539095	-0.2675499	0.5918898	0	-0.0068179	0.0020560	-0.0038449
O	0.2456599	-0.0584600	-0.3758399	0	-0.0000353	0.0014651	0.0067645
C	-0.9916396	-0.5487298	0.0148300	0	0.0052017	0.0085903	0.0005047
C	-1.8528593	0.2855899	0.9145096	0	0.0057018	0.0003829	-0.0065064
C	-2.1825592	0.1334699	-0.5494198	0	0.0013202	0.0044740	0.0071447
H	3.3499287	0.1601000	0.7953997	0	0.0022122	0.0001126	-0.0002827
H	2.4429791	1.3790294	-0.1157600	0	-0.0009602	0.0047170	-0.0014827
H	2.8345489	-0.1738299	-0.8658097	0	0.0020074	0.0014880	-0.0037464
H	1.3616795	-1.3435995	0.7894297	0	0.0002411	-0.0030947	0.0012373
H	0.9646596	0.2107699	1.5372494	0	-0.0056584	0.0014480	0.0008715
H	-1.0269196	-1.6299794	0.1396000	0	0.0003717	-0.0063262	0.0061179
H	-2.4776090	-0.2105299	1.6455793	0	-0.0020458	0.0006983	0.0015708
H	-1.4486895	1.2394995	1.2280495	0	0.0017298	0.0027594	-0.0002450
H	-3.0357888	-0.4681398	-0.8328297	0	-0.0029068	-0.0036797	0.0007561
H	-1.9860492	0.9831896	-1.1892595	0	-0.0012516	-0.0006623	-0.0055318
