16
Properties=species:S:1:pos:R:3:molID:I:1:forces_dft:R:3 Nmols=1 Comp=VC(1) energy_dft=-8869.511047197233 pbc="F F F"
C	-1.3876295	-0.3411499	-0.7724397	0	0.0003791	-0.0020822	0.0036504
C	-0.7211197	-0.1953599	0.5844397	0	0.0052428	0.0019760	0.0053924
O	-0.4724498	-1.4515594	1.1896695	0	0.0016247	0.0006649	0.0024664
C	0.6504798	0.5036498	0.5351698	0	-0.0051416	0.0094263	-0.0029962
C	1.6691794	-0.1783799	-0.3803298	0	-0.0088935	-0.0121389	0.0033801
C	0.4718798	1.9097193	0.1646999	0	-0.0038044	0.0062198	-0.0006116
N	0.3207999	3.0051088	-0.1417400	0	0.0016560	-0.0148219	0.0016151
H	-1.5098794	0.6305197	-1.2546895	0	-0.0007979	0.0035077	-0.0032521
H	-2.3811391	-0.7808197	-0.6591097	0	-0.0026611	-0.0020434	-0.0008013
H	-0.8021197	-0.9893396	-1.4257094	0	0.0004950	-0.0034447	-0.0026222
H	-1.3661495	0.4086799	1.2358395	0	0.0001383	-0.0004974	0.0004346
H	-1.2797095	-1.9682492	1.1742995	0	-0.0019404	-0.0018395	0.0018672
H	1.0335696	0.4924598	1.5594794	0	0.0024961	0.0006356	0.0023672
H	2.6504189	0.2810899	-0.2647899	0	0.0026751	0.0015508	-0.0034170
H	1.3823394	-0.0938500	-1.4285194	0	-0.0016186	-0.0028289	-0.0036249
H	1.7415493	-1.2325195	-0.1162600	0	0.0018057	-0.0053977	-0.0010988
