12
Properties=species:S:1:pos:R:3:molID:I:1:forces_dft:R:3 Nmols=1 Comp=VC(1) energy_dft=-8235.949173095229 pbc="F F F"
N	0.3561799	1.0782396	0.8054697	0	-0.0048973	-0.0001092	0.0056013
C	0.3789098	-0.2583999	0.2319099	0	0.0112921	-0.0020862	-0.0043110
C	-0.9236696	-0.4846598	-0.5454598	0	-0.0118627	0.0002636	0.0048291
O	-2.0223592	-0.3241999	0.3042499	0	0.0076301	0.0058038	0.0091338
C	1.5463394	-0.5164398	-0.6321098	0	0.0058900	-0.0042025	-0.0023526
N	2.4505991	-0.6823697	-1.3187695	0	-0.0149880	0.0062010	-0.0060164
H	1.0434896	1.1854595	1.5375494	0	0.0009366	-0.0024872	0.0008421
H	0.5392698	1.7813593	0.1007300	0	0.0048889	0.0014371	-0.0019252
H	0.4052398	-0.9786896	1.0529296	0	-0.0001010	-0.0027922	0.0013167
H	-0.9560996	0.2127599	-1.3949995	0	-0.0004517	0.0036630	-0.0016842
H	-0.9508196	-1.4989294	-0.9452996	0	-0.0001073	-0.0000791	-0.0048459
H	-1.8670893	0.4858698	0.8037997	0	-0.0049681	-0.0004892	-0.0019741
