17
Properties=species:S:1:pos:R:3:molID:I:1:forces_dft:R:3 Nmols=1 Comp=VC(1) energy_dft=-9443.358262218231 pbc="F F F"
C	-2.2570991	-0.3802399	-0.0671800	0	0.0031988	-0.0003553	0.0038622
C	-0.7959897	-0.4151098	-0.4876498	0	0.0050515	-0.0020082	0.0031855
O	-0.4947598	0.6396797	-1.3834895	0	0.0015221	0.0033379	-0.0027948
C	0.1370500	-0.4236899	0.7226297	0	-0.0010958	-0.0051310	-0.0030279
C	1.6096894	-0.2983899	0.3583499	0	-0.0002474	0.0007966	-0.0015614
C	2.0984892	1.1075796	0.1513400	0	-0.0091898	-0.0004027	-0.0055770
O	1.4307295	2.1014792	0.2667899	0	0.0014233	-0.0094236	-0.0020338
H	-2.5098190	-1.2391295	0.5590998	0	0.0008145	-0.0011029	0.0053882
H	-2.4689790	0.5292598	0.5014598	0	0.0002908	0.0032784	0.0071337
H	-2.9001788	-0.3899298	-0.9473397	0	-0.0008983	-0.0013343	-0.0020710
H	-0.6169197	-1.3275995	-1.0677396	0	-0.0041328	-0.0026332	-0.0022869
H	-0.3490799	1.4432594	-0.8731097	0	-0.0024752	0.0019648	0.0036145
H	-0.1366600	0.3946298	1.3964395	0	-0.0010667	-0.0014499	0.0018659
H	-0.0255600	-1.3521595	1.2749495	0	0.0008044	-0.0008555	0.0017964
H	1.8521593	-0.8588997	-0.5521998	0	0.0026574	-0.0002638	-0.0028865
H	2.2534391	-0.7237397	1.1375696	0	-0.0003304	-0.0006797	0.0007324
H	3.1734788	1.1929995	-0.1074300	0	0.0039309	0.0001321	-0.0027805
