16
Properties=species:S:1:pos:R:3:molID:I:1:forces_dft:R:3 Nmols=1 Comp=VC(1) energy_dft=-8406.346619638658 pbc="F F F"
O	-1.3833994	0.4546198	-1.3144795	0	-0.0068818	-0.0062085	0.0094867
C	-1.6883793	-0.2830399	-0.1545900	0	0.0059669	0.0022446	-0.0098557
C	-0.5284698	-1.1211695	0.3723598	0	0.0102282	0.0081017	0.0003774
C	0.5983998	-0.3660199	1.0815496	0	-0.0065357	-0.0005689	-0.0011526
C	1.4944694	0.5034798	0.2192799	0	-0.0046800	0.0067571	0.0019196
O	0.8062797	1.6998593	-0.1432500	0	0.0025011	-0.0041427	-0.0035963
H	-0.7028097	1.0965396	-1.0709296	0	-0.0016185	-0.0021630	-0.0006876
H	-2.0584192	0.3763498	0.6444697	0	-0.0014876	-0.0021656	0.0047730
H	-2.5090590	-0.9502196	-0.4272898	0	-0.0005180	-0.0020750	-0.0043846
H	-0.1184000	-1.7019293	-0.4608698	0	0.0043763	-0.0011251	-0.0039525
H	-0.9405596	-1.8445192	1.0836596	0	-0.0027775	-0.0024314	-0.0000773
H	1.2488195	-1.1000596	1.5664594	0	-0.0008707	0.0001447	-0.0004028
H	0.1877799	0.2572999	1.8830493	0	-0.0008422	-0.0001133	0.0034854
H	1.8021893	-0.0445900	-0.6798897	0	0.0054438	-0.0006051	-0.0010254
H	2.3949791	0.7646897	0.7854397	0	0.0023353	0.0033177	0.0011249
H	1.3965794	2.2587291	-0.6509597	0	0.0027161	0.0002861	0.0026303
