11
Properties=species:S:1:pos:R:3:molID:I:1:forces_dft:R:3 Nmols=1 Comp=VC(1) energy_dft=-7302.462182579833 pbc="F F F"
O	1.5309494	-0.7891897	0.5316498	0	-0.0020902	0.0010197	0.0107006
C	0.2293899	-0.2882499	0.5824798	0	0.0102232	-0.0058787	0.0054599
C	-0.0525400	1.1452196	0.1093000	0	-0.0088417	-0.0007977	-0.0043213
O	-1.1554296	0.6923997	-0.6874897	0	0.0019047	-0.0172581	0.0069197
C	-0.7807097	-0.6800897	-0.5061598	0	-0.0050317	0.0062391	-0.0116034
H	1.8921493	-0.6350498	-0.3445999	0	0.0020843	0.0004054	-0.0034475
H	-0.1328399	-0.4837698	1.5906794	0	-0.0011371	0.0016550	0.0043927
H	-0.3537899	1.8832292	0.8553496	0	0.0012500	0.0042317	0.0041989
H	0.7556797	1.5602994	-0.5070798	0	0.0056160	0.0016377	0.0043054
H	-1.6271894	-1.3077395	-0.2203599	0	0.0003178	-0.0046543	-0.0006610
H	-0.3056899	-1.0970695	-1.4037795	0	-0.0005132	0.0003081	-0.0015243
