15
Properties=species:S:1:pos:R:3:molID:I:1:forces_dft:R:3 Nmols=1 Comp=VC(1) energy_dft=-9409.788536659171 pbc="F F F"
O	-1.6269393	1.1058595	0.5880298	0	0.0018589	-0.0009246	-0.0063651
C	-1.5192994	-0.2264099	0.1208199	0	0.0033075	0.0002816	-0.0020266
C	-0.0564400	-0.6003998	0.0531200	0	-0.0026073	0.0045026	0.0030180
C	0.7982997	-0.3805899	1.3297995	0	0.0009934	-0.0036783	-0.0010755
C	1.8432993	0.2789499	0.4391698	0	0.0081582	0.0093026	0.0001442
O	2.9960088	0.5528698	0.5831198	0	-0.0164484	0.0011871	-0.0048916
C	0.8860796	0.3408399	-0.7438997	0	0.0049479	-0.0111793	0.0005244
H	-2.5510990	1.3516094	0.6303798	0	-0.0026792	0.0015146	0.0002876
H	-2.0426792	-0.9169497	0.7949197	0	-0.0022783	-0.0020526	0.0014610
H	-1.9675192	-0.3246099	-0.8765296	0	-0.0018409	-0.0010588	-0.0015437
H	0.0241400	-1.6293994	-0.3020899	0	-0.0011076	-0.0021671	-0.0009064
H	0.3480099	0.3525099	2.0027192	0	-0.0051633	-0.0009021	-0.0022182
H	1.1244795	-1.2508495	1.8985093	0	0.0031629	-0.0005517	-0.0000096
H	0.4679898	1.3446694	-0.8476197	0	-0.0040687	0.0042419	0.0054886
H	1.2756795	0.0018900	-1.7032993	0	-0.0011773	0.0002054	-0.0027602
