17
Properties=species:S:1:pos:R:3:molID:I:1:forces_dft:R:3 Nmols=1 Comp=VC(1) energy_dft=-9443.760304661444 pbc="F F F"
C	1.8057293	0.3602898	-0.6998497	0	-0.0012494	-0.0032921	0.0014252
C	0.9943396	-0.5831798	0.1444399	0	0.0098271	-0.0029747	0.0066922
O	1.4924194	-1.5571094	0.6583997	0	-0.0080729	-0.0189993	-0.0107643
C	-0.4958798	-0.2988899	0.3751499	0	0.0011133	0.0048210	0.0075053
C	-0.6948797	1.1149596	0.9177397	0	0.0067637	-0.0030446	0.0003973
C	-1.2548095	-0.5023498	-0.9406396	0	0.0091846	0.0009071	-0.0019835
O	-0.9781696	-1.2154395	1.3251395	0	-0.0055975	0.0008445	0.0010912
H	1.2460895	0.7338697	-1.5567394	0	0.0011175	0.0000330	-0.0041031
H	2.7146689	-0.1372199	-1.0304096	0	0.0026699	-0.0006670	-0.0018683
H	2.0827192	1.2225295	-0.0879900	0	0.0000409	0.0016318	0.0011915
H	-0.1266099	1.2528895	1.8389093	0	-0.0005177	-0.0033101	0.0017039
H	-1.7514393	1.2544595	1.1487395	0	-0.0045245	0.0020446	0.0014994
H	-0.3979998	1.8771993	0.1955199	0	-0.0038902	0.0021617	-0.0064970
H	-2.3217891	-0.4016698	-0.7395597	0	-0.0028555	-0.0002873	0.0017133
H	-1.0773896	-1.5060394	-1.3304495	0	0.0013023	-0.0041445	-0.0009946
H	-0.9780596	0.2294299	-1.7010993	0	-0.0035608	0.0031044	-0.0029778
H	-0.2589499	-1.8437393	1.4826794	0	-0.0022315	-0.0001784	0.0013438
