13
Properties=species:S:1:pos:R:3:molID:I:1:forces_dft:R:3 Nmols=1 Comp=VC(1) energy_dft=-7799.519947906484 pbc="F F F"
O	1.5296494	-0.0008300	1.1374796	0	-0.0022419	0.0090693	-0.0035518
C	1.1921495	0.2715499	-0.2106299	0	0.0074824	-0.0023871	0.0209186
C	0.0655400	-0.6604797	-0.6068098	0	-0.0089746	0.0075766	0.0078023
C	-1.1923795	-0.4710898	0.2468299	0	0.0021426	0.0047794	-0.0089170
C	-1.7673293	0.8640397	0.0956400	0	-0.0027411	-0.0013844	0.0048117
N	-2.1954891	1.9198092	-0.0405700	0	0.0047420	-0.0021907	-0.0007912
H	2.1198491	0.6814097	1.4585394	0	0.0015810	0.0009895	-0.0017708
H	2.0506692	0.1022000	-0.8714097	0	-0.0000519	0.0043530	-0.0064274
H	0.8730497	1.3142995	-0.3317099	0	-0.0028569	0.0035383	-0.0039192
H	0.4012998	-1.6934493	-0.4918698	0	-0.0014453	-0.0026151	0.0077507
H	-0.1709099	-0.5056098	-1.6618394	0	0.0007730	0.0004445	-0.0023432
H	-0.9505796	-0.6192598	1.3005495	0	-0.0000647	-0.0007910	0.0031924
H	-1.9554993	-1.2025796	-0.0242100	0	-0.0011973	-0.0017587	0.0017274
