15
Properties=species:S:1:pos:R:3:molID:I:1:forces_dft:R:3 Nmols=1 Comp=VC(1) energy_dft=-9409.941198247208 pbc="F F F"
C	-1.5244394	-0.6177497	-0.1331599	0	-0.0002229	-0.0039049	0.0073193
C	-0.4013298	0.4052198	-0.0903400	0	0.0033900	-0.0019859	0.0036403
O	-0.8722696	1.7162593	-0.2721299	0	0.0073589	-0.0107641	0.0082855
C	0.5633398	0.2526199	1.1110896	0	0.0020912	0.0029161	-0.0053678
C	1.6103394	-0.4530598	0.2084999	0	-0.0037426	0.0008786	-0.0021966
C	0.7894897	0.0171000	-0.9834096	0	0.0070157	0.0128701	0.0112364
O	1.0034396	0.1800499	-2.1466191	0	-0.0024867	-0.0014594	0.0088067
H	-2.2559291	-0.3843198	0.6419398	0	-0.0005019	-0.0041571	-0.0011510
H	-2.0224392	-0.5926798	-1.1047096	0	-0.0029523	-0.0054748	-0.0035665
H	-1.1527996	-1.6317393	0.0303700	0	-0.0006764	-0.0024836	0.0022522
H	-1.0708496	1.8365593	-1.2052295	0	-0.0039204	0.0002924	-0.0071390
H	0.9030096	1.2292595	1.4509494	0	0.0024971	0.0015224	-0.0025590
H	0.1822599	-0.3186899	1.9555292	0	0.0004850	0.0040036	-0.0020839
H	2.6393190	-0.0976799	0.2391699	0	0.0027443	-0.0016633	-0.0014975
H	1.6088594	-1.5411594	0.2980499	0	0.0013643	-0.0047393	0.0008523
