14
Properties=species:S:1:pos:R:3:molID:I:1:forces_dft:R:3 Nmols=1 Comp=VC(1) energy_dft=-7361.362691942109 pbc="F F F"
C	-0.5896998	-1.5817594	0.0301300	0	-0.0008704	-0.0031579	-0.0021541
C	-0.2292899	-0.1627899	-0.4113698	0	0.0054663	0.0034646	0.0077750
C	-0.8665797	0.8839596	0.5118498	0	0.0037088	0.0028280	-0.0024148
O	-0.6028898	2.2046791	0.1108399	0	0.0075254	-0.0030903	0.0028420
C	1.2215695	0.0375600	-0.4517998	0	0.0132673	0.0051466	0.0088997
C	2.4039190	0.2346199	-0.4518298	0	-0.0183918	-0.0019502	-0.0008960
H	-0.2186799	-1.7795893	1.0374296	0	0.0014140	0.0012098	0.0036525
H	-0.1539799	-2.3215291	-0.6408898	0	0.0030259	-0.0029930	-0.0004680
H	-1.6732893	-1.7142093	0.0298500	0	-0.0034239	-0.0040292	0.0031691
H	-0.6153398	0.0126000	-1.4205994	0	0.0008434	-0.0006036	-0.0031770
H	-1.9514593	0.7644297	0.4860498	0	-0.0046431	0.0002734	0.0032780
H	-0.5316198	0.7034397	1.5423594	0	-0.0008250	0.0004064	0.0041116
H	0.3508199	2.3253791	0.0924600	0	-0.0012506	-0.0007770	-0.0005373
H	3.4565187	0.3931998	-0.4644698	0	0.0057053	0.0023106	-0.0004721
