16
Properties=species:S:1:pos:R:3:molID:I:1:forces_dft:R:3 Nmols=1 Comp=VC(1) energy_dft=-8406.103345750011 pbc="F F F"
C	2.4687590	-0.5537798	-0.5525998	0	-0.0114613	0.0014289	-0.0012379
O	1.3719695	-0.2527599	0.2695199	0	-0.0029512	-0.0052505	-0.0000947
C	0.2243099	0.1297200	-0.4518098	0	0.0058467	0.0050224	0.0018812
C	-0.9107897	0.2915099	0.5408498	0	-0.0003818	-0.0006486	-0.0011124
C	-2.2095591	0.6624598	-0.1412899	0	0.0045588	-0.0057594	0.0089565
O	-1.1168695	-0.9194096	1.2418695	0	-0.0039118	-0.0112559	-0.0075841
H	2.2396791	-1.3796195	-1.2380495	0	0.0011151	-0.0002069	-0.0041814
H	2.7735589	0.3173099	-1.1465395	0	0.0052186	0.0021725	-0.0052614
H	3.2942687	-0.8463397	0.0947899	0	0.0018775	-0.0003244	0.0056437
H	-0.0370700	-0.6456898	-1.1871395	0	0.0025767	-0.0027201	-0.0015127
H	0.4020498	1.0722796	-0.9893096	0	0.0000709	0.0020143	-0.0026895
H	-0.6269898	1.0837796	1.2486095	0	-0.0038974	0.0028483	0.0014196
H	-3.0042488	0.7563097	0.5986098	0	-0.0027113	0.0009289	0.0004073
H	-2.4985690	-0.1110300	-0.8555397	0	0.0027313	0.0007140	-0.0015353
H	-2.1169092	1.6135294	-0.6690698	0	-0.0049664	0.0022009	0.0011926
H	-0.2535899	-1.2182595	1.5419794	0	0.0023047	-0.0032801	0.0006912
