16
Properties=species:S:1:pos:R:3:molID:I:1:forces_dft:R:3 Nmols=1 Comp=VC(1) energy_dft=-8869.018560455152 pbc="F F F"
C	2.4926890	0.3889299	0.0502000	0	-0.0118603	0.0013385	0.0000106
O	1.1199396	0.6818297	0.1171900	0	0.0031094	-0.0110136	-0.0120222
C	0.3270499	-0.4627898	0.2603099	0	0.0068195	0.0070078	-0.0015272
C	-1.1344495	-0.0155900	0.2943199	0	0.0007029	-0.0042124	-0.0065802
C	-1.5699794	0.6657698	-1.0037796	0	0.0062607	-0.0017172	0.0046587
C	-1.9817592	-1.1736195	0.5910397	0	-0.0023843	0.0049923	0.0077421
N	-2.6366190	-2.0906592	0.8066897	0	-0.0035458	0.0011512	-0.0080419
H	3.0216888	1.3338795	-0.0606700	0	0.0043521	0.0031361	0.0059571
H	2.7224089	-0.2546399	-0.8082597	0	0.0005023	-0.0079155	-0.0016807
H	2.8404189	-0.1095000	0.9638096	0	0.0043356	-0.0008929	0.0018948
H	0.5776998	-0.9979596	1.1864796	0	0.0016832	-0.0018772	0.0020645
H	0.4846998	-1.1567795	-0.5787198	0	-0.0006747	-0.0025955	-0.0001610
H	-1.2453695	0.6857597	1.1264796	0	-0.0001982	-0.0003321	0.0017431
H	-2.6030990	1.0057096	-0.9372496	0	-0.0032960	0.0023292	0.0015354
H	-0.9263896	1.5232794	-1.1922195	0	0.0020955	0.0021410	0.0022542
H	-1.4889294	-0.0236200	-1.8457693	0	0.0034463	0.0021906	-0.0033277
