14
Properties=species:S:1:pos:R:3:molID:I:1:forces_dft:R:3 Nmols=1 Comp=VC(1) energy_dft=-7361.660455963406 pbc="F F F"
O	-0.9880096	1.9193093	0.0666300	0	0.0003132	-0.0102402	0.0082135
C	-0.7547197	0.6329198	0.5756998	0	-0.0005570	0.0003078	0.0004747
C	-1.0682996	-0.6190798	-0.2973999	0	0.0080544	0.0060430	-0.0031131
C	0.3478698	-1.1165496	-0.0266400	0	0.0021924	0.0079478	0.0088131
C	1.3219595	-0.1297500	-0.5708398	0	0.0006739	-0.0047998	-0.0078207
C	0.6758097	0.1501600	0.7527197	0	-0.0100638	-0.0053849	0.0121016
H	-0.4079399	2.0603892	-0.6846997	0	0.0007659	-0.0021913	0.0008092
H	-1.3021995	0.5868698	1.5168094	0	-0.0017026	0.0059128	-0.0001456
H	-1.2971295	-0.4156699	-1.3464495	0	-0.0026358	0.0006074	-0.0029683
H	-1.8600093	-1.2373495	0.1230199	0	-0.0021544	-0.0010753	0.0008822
H	0.6270798	-2.1326991	0.2130399	0	0.0039721	-0.0046990	-0.0006822
H	1.0694396	0.4432498	-1.4595894	0	0.0015365	0.0008854	-0.0020209
H	2.3673291	-0.4048198	-0.5126598	0	0.0050966	-0.0012173	0.0008285
H	1.2688295	0.2630099	1.6503693	0	0.0021423	-0.0002390	0.0012420
