15
Properties=species:S:1:pos:R:3:molID:I:1:forces_dft:R:3 Nmols=1 Comp=VC(1) energy_dft=-9408.802876642465 pbc="F F F"
O	2.1641891	0.2428599	-0.5685098	0	-0.0012233	0.0018387	0.0101594
C	1.1455896	0.3299098	0.4007099	0	0.0044798	0.0005692	-0.0084810
C	-0.0180300	1.2569595	-0.0229600	0	0.0065398	0.0006174	0.0051226
C	-0.9614596	0.0692300	0.1229199	0	-0.0062023	0.0034164	-0.0067540
O	-2.2091591	0.1388600	0.7116197	0	0.0034187	-0.0018800	0.0062456
C	-0.5507098	-1.0458496	-0.7745197	0	-0.0032458	-0.0011647	-0.0043453
C	0.1722599	-0.8385097	0.5321898	0	0.0005482	-0.0025905	0.0084995
H	2.7806389	-0.4434798	-0.3067599	0	0.0013932	0.0015580	0.0024388
H	1.5578494	0.6213197	1.3717995	0	-0.0005331	0.0011176	0.0025862
H	-0.2125799	2.0365392	0.7120997	0	0.0004267	-0.0030860	0.0009192
H	0.0681500	1.6958293	-1.0185196	0	-0.0006587	0.0015626	-0.0026820
H	-2.8632189	0.2888199	0.0260200	0	0.0006133	0.0031223	-0.0002844
H	-1.2234295	-1.8945692	-0.7709697	0	-0.0009337	-0.0017227	-0.0031147
H	-0.0415400	-0.8558997	-1.7131493	0	-0.0009277	-0.0003002	-0.0010468
H	0.1914499	-1.6020094	1.2980295	0	-0.0001927	-0.0034577	0.0013927
