17
Properties=species:S:1:pos:R:3:molID:I:1:forces_dft:R:3 Nmols=1 Comp=VC(1) energy_dft=-8432.806664659582 pbc="F F F"
O	1.8950192	-0.8807497	1.0779196	0	0.0098926	0.0062295	-0.0134752
C	1.3029795	-0.4981598	-0.1619200	0	0.0081249	-0.0053100	0.0048632
C	0.0007500	-1.2481895	-0.4340098	0	-0.0050823	0.0062262	0.0089490
C	-1.1690795	-0.6259198	0.3179299	0	0.0044927	0.0019452	-0.0119366
C	-1.3781595	0.8186397	-0.1233999	0	0.0049236	0.0042079	0.0031839
C	-0.0831199	1.5752094	-0.1937099	0	0.0070627	-0.0040628	0.0051219
C	1.1103796	0.9927896	-0.2117299	0	-0.0151686	-0.0014969	0.0039176
H	1.4441894	-0.4070098	1.7801293	0	-0.0004513	-0.0012380	0.0005053
H	2.0414692	-0.7881997	-0.9139596	0	0.0007761	-0.0005315	-0.0013631
H	0.1409199	-2.2950091	-0.1584199	0	0.0008093	-0.0031098	0.0013885
H	-0.2027299	-1.2182495	-1.5101694	0	-0.0012565	-0.0012112	-0.0021219
H	-0.9661496	-0.6517597	1.3944895	0	-0.0004411	0.0020120	0.0019168
H	-2.0805892	-1.2072195	0.1649499	0	-0.0009250	-0.0036200	-0.0024994
H	-1.8591893	0.8446497	-1.1091295	0	-0.0034531	-0.0003710	-0.0011898
H	-2.0644992	1.3342395	0.5538498	0	-0.0008294	0.0010100	0.0003619
H	-0.1446299	2.6588889	-0.2365799	0	0.0001278	0.0038240	-0.0009090
H	2.0124292	1.5960194	-0.2362399	0	0.0017156	-0.0011274	-0.0016896
