15
Properties=species:S:1:pos:R:3:molID:I:1:forces_dft:R:3 Nmols=1 Comp=VC(1) energy_dft=-10421.251859084749 pbc="F F F"
C	2.4458591	-0.0746200	0.3275799	0	-0.0093139	0.0055203	-0.0029731
O	1.0848796	0.3579299	0.3789498	0	-0.0026012	0.0021596	0.0064281
C	0.1716199	-0.5642098	0.0967300	0	0.0069158	-0.0071788	-0.0034730
O	0.4266199	-1.7073093	-0.1854199	0	-0.0075960	-0.0004273	0.0019265
C	-1.2467295	-0.0267000	0.1642599	0	-0.0010352	-0.0056824	-0.0004454
C	-1.4708194	1.0709696	-0.8685996	0	-0.0004462	0.0001228	0.0029745
O	-2.1497192	-1.0816396	-0.0222700	0	-0.0044310	0.0137533	0.0018581
H	2.6181490	-0.8730096	1.0488896	0	0.0023300	-0.0004605	0.0009143
H	3.0424688	0.7985297	0.5768298	0	0.0024012	0.0026900	-0.0015910
H	2.6931789	-0.4344198	-0.6707597	0	-0.0000300	-0.0005554	-0.0023533
H	-1.3798395	0.3924998	1.1696296	0	-0.0026994	-0.0051031	0.0013206
H	-0.8129097	1.9209692	-0.6870597	0	0.0033938	0.0000394	-0.0017437
H	-2.5063090	1.4051195	-0.8104897	0	-0.0047103	0.0017720	0.0036731
H	-1.2919595	0.6855198	-1.8739193	0	0.0001598	0.0031668	-0.0039616
H	-1.6245094	-1.8696193	-0.2105199	0	0.0093574	0.0013606	-0.0006782
