16
Properties=species:S:1:pos:R:3:molID:I:1:forces_dft:R:3 Nmols=1 Comp=VC(1) energy_dft=-7395.661946435223 pbc="F F F"
C	1.4907594	0.5258198	-0.4219498	0	-0.0000056	-0.0088007	0.0025914
C	0.4129898	-0.3868399	0.1335099	0	0.0004077	0.0077647	0.0010477
O	0.9721796	-1.5877394	0.6235597	0	-0.0000965	-0.0020104	-0.0046754
C	-0.8171897	-0.5202098	-0.7985097	0	0.0050078	0.0027664	0.0062924
C	-1.5275294	0.5528698	0.0530100	0	0.0051045	-0.0119968	0.0050656
C	-0.4960198	0.2927499	1.1712595	0	-0.0010624	-0.0065944	-0.0074221
H	1.0700896	1.4721094	-0.7677897	0	-0.0034379	0.0016875	0.0016264
H	1.9904692	0.0571400	-1.2756395	0	-0.0005686	-0.0003085	-0.0026254
H	2.2374891	0.7377397	0.3455999	0	0.0002506	0.0030679	0.0016729
H	1.5570194	-1.9521192	-0.0445700	0	0.0001111	0.0002155	-0.0007369
H	-0.6697497	-0.3211999	-1.8617593	0	-0.0000058	0.0034704	-0.0052759
H	-1.2746995	-1.5021294	-0.6730998	0	-0.0004708	-0.0025651	0.0012263
H	-2.5750090	0.3798399	0.2948399	0	-0.0031891	-0.0028754	-0.0004312
H	-1.4323794	1.5511994	-0.3757999	0	0.0010552	0.0034556	-0.0027731
H	-0.8523197	-0.4475198	1.8877993	0	-0.0009452	-0.0019868	0.0010877
H	-0.0860700	1.1482795	1.7095593	0	-0.0011125	0.0035240	0.0020394
