12
Properties=species:S:1:pos:R:3:molID:I:1:forces_dft:R:3 Nmols=1 Comp=VC(1) energy_dft=-5289.313861705848 pbc="F F F"
C	-1.5602294	0.1074700	-0.0564200	0	0.0008902	-0.0104613	-0.0063293
C	-0.2033399	-0.5358198	-0.3081299	0	0.0010454	0.0129767	0.0005470
C	0.9380296	0.2983399	0.2338099	0	0.0031078	-0.0095368	-0.0027376
O	2.1544392	-0.3713299	-0.0440500	0	0.0112922	-0.0042105	0.0141204
H	-1.7446693	0.2429599	1.0122796	0	-0.0026281	-0.0039494	0.0041044
H	-2.3675491	-0.5086098	-0.4543498	0	-0.0032362	-0.0003671	-0.0012755
H	-1.6294793	1.0892896	-0.5313598	0	0.0032831	0.0030911	-0.0005827
H	-0.1594199	-1.5252294	0.1548399	0	-0.0018705	-0.0027694	-0.0008948
H	-0.0448200	-0.6839297	-1.3797394	0	0.0013775	0.0058017	-0.0046924
H	0.8102997	0.4415598	1.3160095	0	-0.0007687	-0.0037683	0.0053801
H	0.9250896	1.2921195	-0.2352799	0	-0.0010147	0.0034631	-0.0016379
H	2.8816289	0.1531799	0.2923999	0	-0.0004719	0.0004310	-0.0006314
