14
Properties=species:S:1:pos:R:3:molID:I:1:forces_dft:R:3 Nmols=1 Comp=VC(1) energy_dft=-8373.346945613896 pbc="F F F"
C	-1.6586593	-0.2820199	-0.4846898	0	0.0025439	0.0042753	-0.0044537
C	-0.2890299	0.3410999	-0.2763999	0	-0.0031132	-0.0046933	0.0005317
O	-0.3477299	1.4360094	0.6276097	0	0.0038818	0.0145497	-0.0066284
C	0.7015897	-0.6535297	0.3181099	0	0.0024573	0.0044467	0.0003124
C	2.0954792	-0.0937099	0.4233499	0	0.0075307	-0.0140830	-0.0003305
O	3.0738188	-0.6523597	0.0052000	0	-0.0035889	0.0065656	-0.0006316
H	-2.3599091	0.4510698	-0.8907397	0	-0.0003029	0.0041501	-0.0026948
H	-1.6053194	-1.1164495	-1.1864095	0	0.0013310	-0.0016761	0.0004530
H	-2.0562992	-0.6472697	0.4643098	0	-0.0014209	-0.0001686	0.0016680
H	0.0986600	0.6873997	-1.2452495	0	0.0022075	-0.0009502	-0.0013782
H	-0.9253296	2.1093792	0.2642699	0	0.0005629	-0.0000722	-0.0005455
H	0.7368897	-1.5705494	-0.2711399	0	-0.0000570	-0.0035840	0.0016050
H	0.3613798	-0.9009397	1.3305295	0	-0.0032507	-0.0004687	0.0035640
H	2.1744491	0.8918596	0.9212596	0	-0.0034944	0.0025444	0.0045697
