19
Properties=species:S:1:pos:R:3:molID:I:1:forces_dft:R:3 Nmols=1 Comp=VC(1) energy_dft=-9475.978291309730 pbc="F F F"
C	-1.7239893	-0.4757298	1.3800295	0	0.0055923	0.0026983	-0.0032044
O	-0.3944499	-0.3509499	0.9402796	0	0.0013775	-0.0069088	-0.0028897
C	-0.2224599	0.4330798	-0.2373399	0	0.0080688	-0.0021231	-0.0003440
C	-0.4526498	1.9116693	0.0345500	0	0.0017876	0.0001928	-0.0016375
C	1.1777795	0.1606899	-0.7666097	0	-0.0026731	-0.0018675	-0.0031616
C	1.4633794	-1.3108695	-1.0399696	0	0.0002384	-0.0066877	0.0060498
O	1.6554293	-2.0663892	0.1341800	0	-0.0037685	0.0092583	0.0066574
H	-2.1159692	0.4651398	1.7799893	0	-0.0021216	0.0002189	0.0045138
H	-1.7332393	-1.2195595	2.1755992	0	-0.0009735	-0.0022604	0.0041562
H	-2.3803791	-0.8145397	0.5686798	0	-0.0022641	-0.0014881	-0.0027141
H	-0.9534796	0.0830899	-0.9836696	0	0.0011212	0.0040773	-0.0043393
H	0.2365299	2.2618091	0.8055497	0	0.0019447	-0.0015600	0.0015670
H	-1.4727894	2.1127092	0.3641199	0	-0.0040410	0.0014461	0.0001452
H	-0.2810399	2.4926890	-0.8732297	0	-0.0026244	0.0030397	-0.0016172
H	1.9165392	0.5397498	-0.0533500	0	0.0029383	0.0003183	0.0001054
H	1.2998195	0.7277297	-1.6941793	0	-0.0001937	0.0027144	-0.0014786
H	0.6502597	-1.7340793	-1.6500693	0	0.0000890	-0.0000314	-0.0011187
H	2.3830491	-1.4035894	-1.6214793	0	0.0023301	0.0000566	-0.0018604
H	0.9476496	-1.8126293	0.7369197	0	-0.0051118	0.0013421	0.0015579
