17
Properties=species:S:1:pos:R:3:molID:I:1:forces_dft:R:3 Nmols=1 Comp=VC(1) energy_dft=-9443.189479703835 pbc="F F F"
O	2.7801289	-0.2071399	-0.6655497	0	0.0000156	-0.0020334	-0.0074855
C	1.7067093	-0.7072297	0.0936400	0	-0.0043152	0.0033845	-0.0100704
C	0.3710799	-0.4374698	-0.5726398	0	-0.0002236	0.0006108	-0.0003906
C	-0.8330796	-0.9077696	0.2550099	0	-0.0013004	-0.0081999	-0.0048771
C	-1.7711593	0.3005199	0.2420199	0	0.0049505	0.0069944	-0.0008608
C	-0.7839297	1.4503694	0.1307600	0	-0.0057242	-0.0027690	0.0061856
O	0.2210599	0.9761996	-0.7490497	0	0.0040995	0.0198400	0.0022861
H	2.5606590	0.7028397	-0.8864596	0	0.0013500	0.0058413	-0.0000940
H	1.6959693	-0.2657099	1.1015996	0	-0.0028662	-0.0023029	0.0001266
H	1.8607193	-1.7839493	0.2017299	0	0.0041678	-0.0034573	-0.0008859
H	0.3802199	-0.8776996	-1.5741494	0	0.0017999	-0.0008329	-0.0014624
H	-0.5217598	-1.1353996	1.2786595	0	0.0060247	-0.0011314	0.0039042
H	-1.2885895	-1.8064593	-0.1585399	0	-0.0032787	-0.0020332	0.0002647
H	-2.4021490	0.3623699	1.1287396	0	-0.0024201	-0.0001971	0.0020979
H	-2.4152590	0.2798099	-0.6392597	0	0.0016703	0.0009747	-0.0059298
H	-0.3564599	1.6967993	1.1126296	0	0.0042419	0.0042750	0.0043350
H	-1.2041595	2.3599291	-0.2991499	0	-0.0000724	0.0016218	0.0028888
