14
Properties=species:S:1:pos:R:3:molID:I:1:forces_dft:R:3 Nmols=1 Comp=VC(1) energy_dft=-9383.647101833401 pbc="F F F"
O	1.5055894	1.6220094	-0.2075899	0	0.0050456	0.0055604	0.0026420
C	1.1175495	0.2562299	-0.1484999	0	-0.0017950	0.0073603	-0.0039640
C	-0.3737398	0.2129599	-0.4226598	0	-0.0017422	-0.0001122	0.0038632
O	-1.0593096	1.0650996	0.4759798	0	-0.0024611	0.0021849	-0.0002950
C	-0.9594296	-1.1760895	-0.2397899	0	0.0012068	0.0074480	0.0058033
O	-0.8380497	-1.6296194	1.0887096	0	-0.0045779	-0.0012659	-0.0088269
H	2.3642791	1.7258393	0.2022799	0	0.0018424	-0.0016568	-0.0002779
H	1.6493594	-0.3356899	-0.9026196	0	-0.0004487	-0.0017442	0.0007869
H	1.3162895	-0.1679899	0.8405097	0	0.0022320	-0.0009028	0.0043551
H	-0.5504298	0.5371998	-1.4580694	0	-0.0020767	0.0022172	-0.0022097
H	-0.5345198	1.8681693	0.5523798	0	-0.0051904	0.0028050	0.0018158
H	-2.0102492	-1.1543296	-0.5529498	0	-0.0045131	0.0056247	0.0031938
H	-0.4327398	-1.8914593	-0.8751296	0	-0.0007756	-0.0021275	-0.0015797
H	-1.1945995	-0.9323297	1.6474493	0	0.0027022	-0.0018297	0.0007859
