11
Properties=species:S:1:pos:R:3:molID:I:1:forces_dft:R:3 Nmols=1 Comp=VC(1) energy_dft=-7302.483441171436 pbc="F F F"
O	-1.6950993	-0.3954598	-0.2853599	0	0.0056400	0.0000917	0.0165301
C	-0.9215196	0.7431197	-0.0052500	0	0.0072886	-0.0023051	-0.0011731
C	0.5565398	0.4415798	0.0338100	0	-0.0008956	0.0005495	-0.0056970
C	1.0688596	-0.8710197	0.4022298	0	-0.0024575	0.0003109	-0.0054922
O	1.0106996	-0.4618898	-0.9627196	0	-0.0060778	0.0071977	-0.0116275
H	-1.3155995	-0.8083897	-1.0673296	0	-0.0007857	-0.0010115	0.0002481
H	-1.0985395	1.5329694	-0.7478897	0	-0.0023577	-0.0011273	0.0000704
H	-1.2435795	1.1244396	0.9663196	0	0.0028731	0.0024620	0.0023747
H	1.1992996	1.3078295	0.1803199	0	0.0048913	-0.0014590	-0.0031222
H	0.3680999	-1.6528993	0.6755997	0	-0.0040574	-0.0005738	-0.0030736
H	2.0708492	-0.9602796	0.8102697	0	0.0029739	0.0015037	0.0018706
