14
Properties=species:S:1:pos:R:3:molID:I:1:forces_dft:R:3 Nmols=1 Comp=VC(1) energy_dft=-7361.496075348017 pbc="F F F"
C	-1.9585992	-0.0852400	-0.2961499	0	0.0003581	0.0016395	0.0117750
C	-0.5309698	-0.4151698	0.0829700	0	0.0057332	0.0017855	-0.0057547
O	-0.0680900	-1.3900694	-0.8284197	0	-0.0125510	-0.0020181	0.0140805
C	0.3627099	0.8335097	0.0504700	0	-0.0070105	-0.0030002	-0.0010894
C	1.7495893	0.5123298	0.3737798	0	0.0116322	0.0016701	0.0003335
C	2.8741689	0.1913799	0.6346798	0	-0.0132195	0.0038138	0.0002954
H	-1.9956392	0.3250799	-1.3073895	0	-0.0006294	0.0046935	-0.0052026
H	-2.5688390	-0.9878896	-0.2717699	0	-0.0004057	-0.0023530	0.0032041
H	-2.3862391	0.6432397	0.3948999	0	-0.0033184	0.0034080	-0.0022443
H	-0.5089698	-0.8209197	1.1040896	0	-0.0039479	-0.0034762	0.0046006
H	0.8491496	-1.5879394	-0.6184197	0	0.0016214	-0.0030531	0.0007622
H	0.3166999	1.2768595	-0.9482396	0	0.0010183	-0.0006224	-0.0019882
H	-0.0137500	1.5752594	0.7596297	0	0.0004131	0.0033342	-0.0020686
H	3.8787985	-0.0704200	0.8698597	0	0.0035668	-0.0033254	0.0019507
