19
Properties=species:S:1:pos:R:3:molID:I:1:forces_dft:R:3 Nmols=1 Comp=VC(1) energy_dft=-9475.501059163222 pbc="F F F"
C	3.3087187	0.6280097	-0.7759297	0	0.0040265	0.0005907	0.0081815
C	2.2873491	-0.2249399	-0.0608000	0	-0.0116830	0.0049127	-0.0095109
O	0.9997896	0.2499099	-0.3754599	0	-0.0000943	0.0021909	-0.0048037
C	-0.0232300	-0.4682198	0.2618899	0	0.0026882	-0.0016462	-0.0022273
C	-1.3458195	0.1274400	-0.1662299	0	-0.0020474	0.0010190	0.0032770
O	-2.3683591	-0.5777198	0.4877598	0	0.0019540	0.0017456	0.0000172
C	-3.6482486	-0.1147900	0.1517499	0	0.0103872	-0.0045891	0.0039516
H	3.2219187	1.6697293	-0.4641198	0	-0.0011996	0.0043667	0.0013750
H	3.1591988	0.5794598	-1.8553693	0	-0.0022273	0.0040223	-0.0039804
H	4.3187083	0.2819099	-0.5498198	0	0.0036480	0.0010331	-0.0006756
H	2.4434190	-0.1851299	1.0273296	0	0.0022548	-0.0073308	0.0040834
H	2.3807391	-1.2782495	-0.3638998	0	0.0048260	-0.0050729	0.0000889
H	0.0103500	-1.5314594	-0.0146800	0	0.0008641	-0.0062919	0.0067081
H	0.0733400	-0.4051898	1.3548994	0	-0.0003862	-0.0074979	0.0050465
H	-1.3736595	1.1942595	0.0973399	0	-0.0011827	0.0059880	-0.0071549
H	-1.4514694	0.0507800	-1.2576695	0	-0.0004112	0.0058062	-0.0057542
H	-3.8458085	-0.2258399	-0.9226996	0	-0.0018394	0.0026319	-0.0041346
H	-3.7773585	0.9420296	0.4206298	0	-0.0039533	0.0041755	0.0006997
H	-4.3695583	-0.7120097	0.7080497	0	-0.0031589	-0.0025127	0.0010797
