10
Properties=species:S:1:pos:R:3:molID:I:1:forces_dft:R:3 Nmols=1 Comp=VC(1) energy_dft=-6729.544199945740 pbc="F F F"
O	-1.8069293	0.2842899	-0.2319799	0	0.0153705	0.0017329	-0.0009943
C	-0.6231297	-0.3629099	0.1754999	0	-0.0153551	0.0126739	-0.0055060
C	0.5289598	0.5274398	-0.2729599	0	0.0012675	-0.0074652	0.0036321
C	1.8225493	-0.0346100	0.1000300	0	0.0055057	0.0052151	-0.0013576
N	2.8281089	-0.4950298	0.4035799	0	-0.0111565	-0.0070509	-0.0017418
H	-2.5606590	-0.2479499	0.0257700	0	0.0003168	-0.0035408	0.0012171
H	-0.5861498	-0.4904698	1.2635895	0	0.0012583	-0.0017755	0.0059185
H	-0.5244798	-1.3520495	-0.2862899	0	-0.0034145	-0.0044714	0.0001449
H	0.4271498	1.5157594	0.1792299	0	0.0031595	0.0033769	-0.0005054
H	0.4945798	0.6555298	-1.3564695	0	0.0012188	0.0011911	-0.0043750
