19
Properties=species:S:1:pos:R:3:molID:I:1:forces_dft:R:3 Nmols=1 Comp=VC(1) energy_dft=-9476.469360433517 pbc="F F F"
C	2.3141791	0.2138899	1.3609095	0	-0.0010471	0.0001090	0.0043514
C	0.8526597	0.5424298	1.0938896	0	0.0000843	-0.0004294	-0.0037452
C	0.3325899	-0.0856599	-0.1957699	0	0.0054588	0.0012115	0.0025949
O	0.4675798	-1.4942294	-0.1858899	0	-0.0013692	0.0020194	-0.0019041
C	-1.1209996	0.2988099	-0.4801598	0	0.0035987	-0.0093801	-0.0012645
C	-1.5804394	-0.1393299	-1.8582793	0	0.0054620	0.0119793	-0.0068899
O	-1.8915293	-0.3232399	0.5455798	0	-0.0125537	-0.0014938	0.0016446
H	2.4624790	-0.8645296	1.4243694	0	0.0011394	-0.0032828	-0.0002988
H	2.9555188	0.5888598	0.5589598	0	0.0005370	0.0006806	-0.0002398
H	2.6554989	0.6606498	2.2962091	0	0.0015088	0.0020215	0.0004785
H	0.2267499	0.2019199	1.9239893	0	-0.0024238	-0.0011821	-0.0013075
H	0.7176197	1.6272294	1.0281496	0	0.0021480	0.0019536	0.0000332
H	0.9452896	0.2633899	-1.0339996	0	0.0010199	0.0010932	0.0016636
H	-0.2238199	-1.8273693	0.3956798	0	0.0037462	0.0010083	0.0001745
H	-1.2109895	1.3901395	-0.3917198	0	0.0015182	0.0051254	-0.0088210
H	-1.4324694	-1.2123095	-1.9855092	0	0.0029083	-0.0040777	-0.0065885
H	-2.6383389	0.0928100	-2.0093392	0	-0.0026791	0.0021655	-0.0012549
H	-1.0164296	0.3819298	-2.6339689	0	0.0028597	0.0045751	0.0007084
H	-2.8151589	-0.3154099	0.2917599	0	-0.0031105	-0.0007371	-0.0007908
