13
Properties=species:S:1:pos:R:3:molID:I:1:forces_dft:R:3 Nmols=1 Comp=VC(1) energy_dft=-7799.088346787634 pbc="F F F"
C	2.1547592	0.3293499	-0.0203400	0	-0.0129843	-0.0058700	0.0046026
O	1.0388696	-0.4801498	0.2544599	0	0.0087757	0.0041869	0.0041862
C	-0.1710400	0.2180499	0.1674299	0	0.0057331	-0.0006049	-0.0034843
C	-1.2840695	-0.7759697	0.4737098	0	-0.0015434	0.0049712	-0.0012110
C	-2.6001990	-0.1521099	0.3901099	0	-0.0024563	0.0020591	0.0029686
N	-3.6248786	0.3580199	0.3192799	0	0.0044944	0.0027519	0.0005404
H	2.0976092	0.7595997	-1.0280896	0	0.0031688	-0.0005923	-0.0034742
H	2.2441891	1.1477096	0.7049897	0	0.0027959	0.0017668	-0.0001923
H	3.0392188	-0.3017399	0.0460400	0	0.0039867	-0.0023546	0.0011691
H	-0.1995399	1.0505096	0.8840397	0	-0.0020843	0.0034300	0.0009663
H	-0.3085399	0.6408398	-0.8374197	0	-0.0014560	-0.0001174	-0.0026321
H	-1.1480496	-1.1866995	1.4757194	0	0.0005206	0.0016512	0.0037220
H	-1.2383395	-1.6074094	-0.2317899	0	0.0002748	-0.0022497	0.0006542
