15
Properties=species:S:1:pos:R:3:molID:I:1:forces_dft:R:3 Nmols=1 Comp=VC(1) energy_dft=-6355.929176021077 pbc="F F F"
C	1.6861093	-0.8771897	-0.5224598	0	-0.0074587	0.0098543	0.0128278
O	1.2525695	0.0819999	0.3990698	0	-0.0105493	0.0110469	0.0052226
C	-0.5204198	0.8361297	0.3291699	0	0.0236830	-0.0030037	-0.0025717
C	-1.0627496	0.4205298	-0.9951696	0	0.0003178	-0.0005658	0.0017434
C	-0.8732896	0.1864199	1.5342694	0	0.0273039	0.0025770	0.0044437
H	1.8694793	-0.4138099	-1.4984794	0	-0.0037472	0.0015029	-0.0039897
H	0.9553596	-1.6884393	-0.6596797	0	-0.0064517	-0.0040287	-0.0028173
H	2.6253090	-1.3254095	-0.1843199	0	-0.0012260	-0.0003797	0.0038773
H	-0.1363400	1.8485793	0.3798799	0	-0.0032474	0.0025320	0.0012733
H	-1.2990095	-0.6436297	-1.0154996	0	-0.0044061	-0.0066533	-0.0050508
H	-0.3851698	0.6583497	-1.8146493	0	0.0011931	-0.0023560	0.0012125
H	-1.9940192	0.9710096	-1.1590496	0	-0.0065107	-0.0016264	-0.0011095
H	-1.5926994	-0.6239998	1.4745194	0	-0.0023715	-0.0033909	-0.0038585
H	-0.8889097	0.7696297	2.4469591	0	-0.0054866	-0.0025822	0.0010341
H	0.4144498	-0.2413499	1.2922595	0	-0.0017512	0.0042032	-0.0003236
