15
Properties=species:S:1:pos:R:3:molID:I:1:forces_dft:R:3 Nmols=1 Comp=VC(1) energy_dft=-9406.501348125979 pbc="F F F"
O	-2.1265992	-0.7539997	-0.7630897	0	0.0084149	-0.0049343	-0.0061764
C	-1.4463594	0.2137799	0.6604097	0	0.0090564	0.0186662	0.0316901
C	-0.1016400	-0.0152800	0.3140199	0	0.0112616	0.0020122	-0.0112857
C	0.9318696	-0.8560397	1.0748796	0	-0.0032618	0.0055457	-0.0070713
C	1.9826392	0.1331799	0.5665698	0	0.0150964	-0.0001593	0.0009935
O	3.1710887	0.1833299	0.6525798	0	-0.0144066	0.0012267	0.0013161
C	0.9413396	1.0274796	-0.1115200	0	-0.0047649	-0.0047048	0.0080426
H	-2.5404190	-0.2180299	-1.4515394	0	0.0006107	-0.0040585	-0.0090809
H	-1.9089692	1.1761095	0.4649898	0	-0.0028174	0.0019057	-0.0039756
H	-1.9302093	-0.3748398	1.4306394	0	-0.0029966	-0.0040270	-0.0037933
H	-0.9025196	-0.6407897	-0.6937897	0	-0.0012225	-0.0002776	0.0029887
H	0.8517196	-0.8494897	2.1661692	0	-0.0055695	-0.0035056	0.0009419
H	1.0947896	-1.8840592	0.7451997	0	-0.0022884	-0.0050486	-0.0064390
H	0.8680497	2.0081092	0.3687298	0	0.0000598	-0.0014304	0.0011535
H	1.1136596	1.1754395	-1.1798095	0	0.0013755	-0.0032440	-0.0047174
