16
Properties=species:S:1:pos:R:3:molID:I:1:forces_dft:R:3 Nmols=1 Comp=VC(1) energy_dft=-8401.316338072302 pbc="F F F"
C	-1.9194792	-0.7514397	-0.9421196	0	0.0503778	0.0044464	0.0078477
C	-0.8677696	0.4189899	0.8925397	0	-0.0021158	-0.0075897	-0.0077361
C	0.3592398	-0.1329500	0.3934498	0	0.0015755	0.0018857	-0.0095968
O	-0.0737700	-0.6897297	-0.9827096	0	-0.0027491	-0.0031797	0.0167501
C	1.4932494	0.8112197	0.0877400	0	0.0008904	-0.0023560	-0.0043367
O	2.4968390	0.1086200	-0.6348197	0	-0.0080283	0.0078604	0.0016782
H	-2.4109990	0.2004799	-1.0593496	0	-0.0026859	0.0039076	0.0015262
H	-1.8338193	-1.2915395	-1.8832792	0	-0.0066641	-0.0014445	-0.0009180
H	-2.3176291	-1.3570295	-0.1433799	0	-0.0000754	0.0005868	0.0046729
H	-1.0273096	1.4879494	0.7778797	0	-0.0075129	0.0039009	-0.0050036
H	-1.3065595	-0.0168500	1.7818493	0	-0.0064699	0.0008535	0.0008004
H	0.7214297	-1.0047596	0.9428396	0	-0.0067061	-0.0025935	-0.0029117
H	0.5289298	-1.3175995	-1.4276194	0	-0.0036201	0.0008852	-0.0034290
H	1.8949792	1.1926295	1.0327596	0	0.0026420	-0.0023661	0.0006476
H	1.1029695	1.6544593	-0.4944898	0	-0.0063222	0.0026450	-0.0038569
H	3.2051387	0.7143697	-0.8556297	0	-0.0009015	-0.0024893	0.0002540
