15
Properties=species:S:1:pos:R:3:molID:I:1:forces_dft:R:3 Nmols=1 Comp=VC(1) energy_dft=-9406.655393975787 pbc="F F F"
C	-1.7405793	-0.6593997	-0.1815799	0	0.0058603	0.0059867	-0.0013980
C	-0.3754599	-0.1019500	-0.0209700	0	0.0100007	0.0010721	0.0024110
O	-0.6898697	1.7353693	-0.0449200	0	0.0002446	0.0073830	-0.0125072
C	0.5379098	-0.0032100	1.0824396	0	0.0098315	0.0021753	0.0047121
C	1.7902993	-0.2521099	0.2233499	0	-0.0040244	0.0063253	0.0065086
C	0.8174897	-0.2748899	-0.9587996	0	-0.0012075	-0.0011598	0.0115368
O	0.9052797	-0.4700398	-2.1309192	0	-0.0051741	0.0000094	0.0111164
H	-2.3942891	-0.3241599	0.6221898	0	-0.0020877	-0.0001071	-0.0014413
H	-2.1713291	-0.3764699	-1.1405495	0	-0.0046839	-0.0017410	-0.0062028
H	-1.6698393	-1.7498193	-0.1399000	0	0.0002224	-0.0078048	-0.0080347
H	-0.3506899	2.2318691	-0.8003497	0	-0.0062203	-0.0014821	-0.0031734
H	0.1248900	1.3256095	0.7852597	0	0.0016484	-0.0067021	0.0044819
H	0.3594699	-0.3402399	2.0946492	0	0.0000671	-0.0019477	-0.0047940
H	2.5561490	0.5255598	0.1960499	0	0.0003921	-0.0005787	-0.0061998
H	2.2827991	-1.2227295	0.3337899	0	0.0008812	-0.0051788	-0.0066384
