17
Properties=species:S:1:pos:R:3:molID:I:1:forces_dft:R:3 Nmols=1 Comp=VC(1) energy_dft=-9439.361788163464 pbc="F F F"
C	-1.7400693	-0.5469898	-0.3820199	0	-0.0016620	0.0228092	0.0075680
C	-0.5733398	0.0070600	0.1406200	0	0.0170304	0.0313509	-0.0047144
O	-1.0741496	1.8316593	-0.4647398	0	-0.0040308	0.0097737	0.0025489
C	0.2220199	0.1290999	1.3758295	0	0.0101057	0.0091776	-0.0014682
C	0.8947896	0.0216600	0.0008300	0	-0.0012688	-0.0049002	0.0045602
C	1.5864294	-1.2519895	-0.4002699	0	-0.0058799	0.0035619	0.0056049
O	1.5189094	1.1458095	-0.5057598	0	0.0044461	0.0066431	-0.0074742
H	-2.5016090	-0.8904096	0.3092199	0	-0.0018696	-0.0064935	0.0034240
H	-1.8445093	0.7837497	-0.6134198	0	0.0117656	-0.0033787	0.0093206
H	-1.6773693	-1.0587596	-1.3361995	0	-0.0016646	-0.0133654	-0.0016954
H	-1.3540195	2.4436491	0.2244899	0	-0.0059710	-0.0055089	-0.0038058
H	0.3008199	1.0932896	1.8579993	0	-0.0039462	-0.0055038	0.0004619
H	0.1995299	-0.7244097	2.0456892	0	-0.0003881	-0.0073578	0.0001520
H	2.6177190	-1.2268895	-0.0444900	0	0.0045998	0.0028245	0.0027022
H	1.0921996	-2.1262592	0.0238500	0	-0.0001857	-0.0057720	-0.0001584
H	1.5989194	-1.3438695	-1.4870094	0	0.0005496	-0.0070315	-0.0048690
H	0.8020397	1.7650093	-0.7227997	0	-0.0072023	-0.0068517	-0.0009370
