14
Properties=species:S:1:pos:R:3:molID:I:1:forces_dft:R:3 Nmols=1 Comp=VC(1) energy_dft=-7358.386748787395 pbc="F F F"
C	-0.9215396	1.1240496	-0.4637198	0	0.0066759	0.0005236	0.0065349
C	0.0270200	0.0998400	-0.1865199	0	-0.0092650	-0.0028802	0.0146484
C	0.3579999	-0.9398396	-1.2143295	0	0.0113961	0.0062015	0.0041324
O	-1.3224195	-0.8954497	0.8074597	0	0.0060752	0.0246826	0.0013922
C	1.0095896	0.3224799	0.8388797	0	0.0064816	0.0028510	0.0045151
C	1.8520693	0.5332398	1.6638393	0	-0.0178021	-0.0063787	-0.0128302
H	-0.7966597	2.0744592	0.0397100	0	-0.0045144	-0.0020964	0.0000059
H	-1.3195895	1.1592095	-1.4714694	0	-0.0058072	-0.0025293	-0.0013322
H	-1.6210493	0.2501399	0.3175099	0	0.0102154	0.0014038	-0.0030685
H	0.7699497	-1.8374093	-0.7600897	0	0.0015929	-0.0031206	-0.0022136
H	1.0979496	-0.5150198	-1.8983492	0	0.0009709	0.0051625	-0.0011316
H	-0.5345698	-1.1977095	-1.7815593	0	-0.0046477	-0.0073781	-0.0054850
H	-1.2020495	-0.9334096	1.7632293	0	-0.0019794	-0.0007548	-0.0043066
H	2.5990990	0.7240197	2.3978090	0	-0.0049492	0.0019939	-0.0005014
