17
Properties=species:S:1:pos:R:3:molID:I:1:forces_dft:R:3 Nmols=1 Comp=VC(1) energy_dft=-9439.727584060332 pbc="F F F"
O	2.4627890	-0.8921597	-1.2486495	0	-0.0088116	0.0161009	0.0147528
C	1.6020094	-0.7630897	0.4452598	0	0.0236169	0.0081681	0.0168573
C	0.4454398	-0.1578600	-0.0723100	0	0.0088322	-0.0000481	-0.0037347
C	-0.9414296	-0.7806597	-0.1035699	0	0.0027913	-0.0003257	0.0005582
C	-1.7920193	0.3072099	0.5576998	0	0.0013073	0.0030072	-0.0004375
C	-1.0546196	1.5693894	0.1318800	0	0.0043034	-0.0075355	-0.0083264
O	0.3201499	1.2324795	0.1722599	0	-0.0047012	-0.0043330	-0.0103863
H	3.1486588	-0.2285899	-1.3929594	0	-0.0052430	-0.0021532	-0.0131095
H	2.3427791	-0.1705199	0.9683396	0	0.0013955	-0.0006914	-0.0056008
H	1.6310594	-1.8311393	0.6099098	0	-0.0029626	-0.0050666	-0.0048141
H	1.2797795	-0.3989198	-1.1590996	0	-0.0035298	-0.0141491	0.0087604
H	-0.9831296	-1.7354793	0.4206898	0	0.0010258	-0.0008660	-0.0033932
H	-1.2796695	-0.9507496	-1.1282395	0	-0.0055614	-0.0000168	-0.0089018
H	-1.7606393	0.2081199	1.6450394	0	0.0035968	-0.0010960	0.0019928
H	-2.8344289	0.2961899	0.2390699	0	-0.0061097	0.0031469	0.0060731
H	-1.2141495	2.4186790	0.7971897	0	0.0018763	0.0000566	0.0032571
H	-1.3427595	1.8640093	-0.8866497	0	-0.0038516	-0.0013203	-0.0028164
