15
Properties=species:S:1:pos:R:3:molID:I:1:forces_dft:R:3 Nmols=1 Comp=VC(1) energy_dft=-6354.244676635521 pbc="F F F"
C	1.6014494	0.6789598	0.5639198	0	0.0306745	0.0107600	0.0084134
C	0.5182098	-0.9170996	-0.9148197	0	0.0000233	-0.0034371	0.0061146
C	-0.6207298	-0.0556200	-0.7891897	0	0.0061800	0.0012580	0.0056862
C	-1.7240493	-0.5017098	0.1447300	0	-0.0075923	0.0076142	-0.0117246
O	-0.0552600	1.2662595	-0.1172900	0	0.0118480	-0.0052766	0.0017239
H	1.6582494	1.6872393	0.9696996	0	-0.0004759	0.0033736	0.0043979
H	2.4169891	0.4362498	-0.0976100	0	-0.0003879	-0.0005986	-0.0060283
H	1.4171494	-0.0664600	1.3207895	0	-0.0011164	0.0001382	0.0007709
H	1.0463596	-0.9371896	-1.8628993	0	-0.0061559	-0.0025751	-0.0017104
H	0.4969998	-1.8662293	-0.3885899	0	-0.0004296	-0.0032343	0.0011248
H	-1.0243596	0.3485398	-1.7229493	0	-0.0056539	-0.0018452	-0.0020495
H	-2.2621991	-1.3396195	-0.3005199	0	-0.0022264	-0.0042343	-0.0006325
H	-1.3021595	-0.8391297	1.0936896	0	-0.0001604	0.0015414	0.0008414
H	-2.4341991	0.2991599	0.3500698	0	-0.0044559	-0.0008644	0.0011969
H	0.2195799	1.8441492	-0.8408397	0	-0.0012452	-0.0030405	-0.0003224
