16
Properties=species:S:1:pos:R:3:molID:I:1:forces_dft:R:3 Nmols=1 Comp=VC(1) energy_dft=-8403.209338451979 pbc="F F F"
C	-2.1799191	-0.7548297	0.2012099	0	0.0018420	-0.0029030	-0.0013068
C	-0.9996196	0.1840899	0.1057799	0	0.0116264	0.0108891	0.0033645
C	0.3059299	-0.3133299	-0.1073900	0	0.0000872	0.0159117	0.0258101
O	0.2690399	0.0708300	-1.9466392	0	0.0082025	-0.0047295	-0.0030081
C	1.4899594	0.4562698	0.3707199	0	0.0013444	-0.0099707	-0.0027255
O	2.6338890	0.1330800	-0.3885699	0	-0.0074165	0.0066506	0.0014108
H	-3.1061088	-0.2496799	-0.0788100	0	-0.0048043	-0.0039411	-0.0128615
H	-2.0581192	-1.5980894	-0.4828198	0	0.0012827	-0.0023679	-0.0077181
H	-2.3218091	-1.1622395	1.2071695	0	-0.0043206	-0.0018316	-0.0059510
H	-0.6633997	0.4871698	-1.2347495	0	0.0017057	-0.0028091	0.0159541
H	-1.0623796	1.1119396	0.6712698	0	0.0015404	-0.0004979	-0.0015908
H	0.4769298	-1.3745395	-0.2561399	0	0.0027193	-0.0026361	-0.0049718
H	0.9584796	0.6625597	-2.2729791	0	-0.0018174	0.0000920	-0.0078983
H	1.6252294	0.1859199	1.4276494	0	-0.0022374	-0.0028458	-0.0010388
H	1.2653495	1.5292694	0.3266599	0	-0.0028737	0.0043504	-0.0050306
H	3.3986286	0.5476798	0.0129800	0	-0.0027239	0.0012144	-0.0064246
