14
Properties=species:S:1:pos:R:3:molID:I:1:forces_dft:R:3 Nmols=1 Comp=VC(1) energy_dft=-8370.021861469317 pbc="F F F"
O	1.7164493	-0.7952297	-0.9702196	0	-0.0196019	0.0165440	0.0100310
C	1.2223095	0.6394698	-0.0394900	0	0.0047593	-0.0018378	-0.0089894
C	0.2913699	-0.0382700	0.8008597	0	0.0052481	0.0012409	0.0110275
C	-1.1965795	0.1895999	0.7076797	0	0.0057763	0.0035404	-0.0026283
C	-1.8316893	0.1388600	-0.6524697	0	0.0041305	-0.0032674	-0.0026493
O	-1.2542495	0.0229400	-1.6988493	0	-0.0097651	-0.0012636	-0.0126539
H	2.5871990	-1.1023196	-0.6856197	0	0.0014743	-0.0084957	0.0002944
H	0.8727097	1.2427695	-0.8677097	0	-0.0027479	-0.0013394	-0.0004032
H	2.1870191	0.9426196	0.3560299	0	0.0034022	-0.0051659	0.0029180
H	0.6406597	-0.2336799	1.8110993	0	0.0007516	-0.0020273	0.0027410
H	0.8975597	-1.0309696	-0.1422699	0	0.0027148	0.0069084	0.0000139
H	-1.7280893	-0.5572798	1.3095195	0	-0.0021187	-0.0026000	-0.0004972
H	-1.5233694	1.1516195	1.1355495	0	-0.0009099	-0.0014064	0.0001672
H	-2.9395888	0.2365099	-0.6367597	0	-0.0072488	0.0007237	0.0004135
