18
Properties=species:S:1:pos:R:3:molID:I:1:forces_dft:R:3 Nmols=1 Comp=VC(1) energy_dft=-7425.776907583766 pbc="F F F"
C	-1.0729296	-1.9592992	0.0833900	0	0.0027679	0.0007088	0.0039316
C	-1.1023696	-0.4562998	0.2570999	0	0.0233950	0.0008991	0.0189532
C	-0.3423099	0.3877698	-0.5800098	0	0.0356773	0.0127858	0.0453978
C	-0.7645297	1.7737693	-0.9260996	0	-0.0016710	0.0038456	-0.0064885
O	0.9389297	0.7591297	0.8357197	0	-0.0006777	-0.0013762	-0.0149300
C	2.2159291	0.1990299	0.7400297	0	-0.0107776	0.0047160	-0.0032006
H	-1.8090993	-2.3055091	-0.6487497	0	-0.0036392	-0.0001786	-0.0073138
H	-0.0912700	-2.3002091	-0.2546999	0	-0.0003143	-0.0022226	-0.0035447
H	-1.2848795	-2.4719190	1.0231796	0	-0.0026933	-0.0022843	-0.0011589
H	-0.0654200	-0.0108000	1.0375996	0	-0.0070749	-0.0005128	-0.0179969
H	-2.0368092	-0.0343200	0.6205498	0	-0.0045431	0.0004872	-0.0042459
H	0.3824199	-0.0723200	-1.2484995	0	0.0028662	-0.0035534	0.0003835
H	-1.4565794	1.7160493	-1.7728293	0	-0.0043870	-0.0035481	-0.0080481
H	0.0782200	2.4011491	-1.2085995	0	-0.0045290	0.0002496	-0.0043047
H	-1.2898995	2.2365791	-0.0911900	0	-0.0070284	-0.0037618	-0.0018041
H	2.6911890	0.1591699	1.7252693	0	-0.0008772	0.0043319	0.0011413
H	2.1925491	-0.8261997	0.3357898	0	-0.0048879	-0.0056569	-0.0128573
H	2.8545489	0.8049997	0.0876400	0	-0.0007527	-0.0001557	-0.0031621
