19
Properties=species:S:1:pos:R:3:molID:I:1:forces_dft:R:3 Nmols=1 Comp=VC(1) energy_dft=-8461.996985935644 pbc="F F F"
C	2.1511392	-0.2110899	-0.4829098	0	-0.0033365	-0.0067181	0.0039643
C	0.9676796	-0.3540498	0.4105599	0	0.0172987	0.0299244	0.0409860
O	1.5869594	0.5387398	1.9910092	0	0.0074945	-0.0104608	-0.0109631
C	-0.1392700	0.5171498	0.3340899	0	0.0236480	0.0228099	0.0276504
C	-0.7526897	1.2259395	-0.8144297	0	-0.0004234	-0.0029268	0.0132707
C	-1.5720394	0.2790999	0.0463500	0	0.0025985	-0.0068987	-0.0042183
C	-2.0453692	-1.0260996	-0.5434398	0	0.0022262	0.0008013	0.0005799
H	1.9104493	-0.7076597	-1.4296595	0	-0.0061351	-0.0015165	-0.0073706
H	3.0455688	-0.6695697	-0.0666600	0	-0.0010676	-0.0021197	-0.0079308
H	2.3434391	0.8394197	-0.6960797	0	-0.0033286	0.0021644	-0.0023801
H	0.8307597	-1.3325095	0.8666896	0	-0.0009905	-0.0011441	0.0012347
H	1.4285995	0.0356500	2.7984589	0	0.0031666	-0.0017642	-0.0046510
H	0.5497498	0.9471696	1.4948594	0	-0.0121585	-0.0145899	-0.0220807
H	-0.5331998	0.8878796	-1.8241393	0	-0.0038625	-0.0029835	-0.0084307
H	-0.9408796	2.2907991	-0.7384797	0	-0.0032611	0.0019036	-0.0010892
H	-2.2883091	0.7539097	0.7114197	0	0.0001617	-0.0013826	-0.0032558
H	-1.3087195	-1.4226094	-1.2482495	0	-0.0018062	-0.0023261	-0.0064410
H	-2.9886288	-0.9030497	-1.0814796	0	-0.0056391	-0.0056686	-0.0071607
H	-2.2040391	-1.7824293	0.2296899	0	-0.0086106	-0.0037787	-0.0047459
