19
Properties=species:S:1:pos:R:3:molID:I:1:forces_dft:R:3 Nmols=1 Comp=VC(1) energy_dft=-9472.652385306827 pbc="F F F"
C	2.1958091	-0.0307100	-1.6585794	0	-0.0045671	0.0007074	0.0083479
O	1.4552994	0.5863898	-0.6389597	0	-0.0185261	-0.0184805	0.0249285
C	0.6209397	-0.4707198	0.7306397	0	0.0416215	0.0483709	0.0149424
C	-0.6783797	-0.1410800	0.2970099	0	0.0060557	0.0036774	0.0056497
C	-1.5416494	-1.1796895	-0.3867999	0	-0.0015382	-0.0062537	-0.0133143
C	-1.4319794	0.9367896	1.0544596	0	0.0037878	-0.0047954	0.0029624
O	-0.5980598	1.9705792	1.5342494	0	-0.0049239	-0.0018225	-0.0134937
H	1.7116593	-0.9509096	-2.0205292	0	-0.0058646	-0.0056817	-0.0095226
H	2.3058791	0.6492798	-2.5083690	0	0.0000796	-0.0003949	-0.0047865
H	3.1981287	-0.2879899	-1.3038195	0	0.0003785	-0.0031274	-0.0006391
H	1.0637396	-1.4259895	0.4687298	0	-0.0001703	-0.0037123	-0.0018217
H	1.0871796	0.0640400	1.5476894	0	-0.0057614	0.0017166	0.0027388
H	0.1853499	0.4539098	-0.5994097	0	0.0107887	-0.0030402	0.0099441
H	-2.2396191	-0.7124597	-1.0855496	0	-0.0057607	0.0057751	-0.0056602
H	-2.1390492	-1.7533993	0.3296599	0	-0.0022630	-0.0036693	-0.0073912
H	-0.9387796	-1.8897693	-0.9560496	0	-0.0038594	-0.0018348	-0.0087093
H	-2.2253491	1.3353095	0.4072999	0	-0.0070160	-0.0012545	0.0003136
H	-1.9255892	0.5243398	1.9408693	0	-0.0044928	-0.0025804	0.0005909
H	-0.0799500	2.3083291	0.7981497	0	-0.0051442	-0.0062241	-0.0044200
