17
Properties=species:S:1:pos:R:3:molID:I:1:forces_dft:R:3 Nmols=1 Comp=VC(1) energy_dft=-9439.840463822929 pbc="F F F"
C	2.5614390	-0.5417398	0.0110800	0	0.0016247	0.0054113	0.0075097
C	1.1155696	-0.8562097	0.3348499	0	-0.0013261	0.0066282	-0.0049516
O	0.2523999	0.0229700	-0.3654298	0	-0.0004439	0.0068656	-0.0021902
C	-1.4843794	0.1839799	0.1697099	0	0.0233401	0.0005550	-0.0051495
C	-1.3535895	1.5546094	0.5009898	0	0.0377424	-0.0029863	-0.0049284
C	-2.1345491	-0.2288999	-1.1085596	0	-0.0088869	-0.0061904	0.0037902
O	-2.7899589	-1.2284395	-1.2173795	0	-0.0027206	0.0007158	-0.0020325
H	2.8029089	0.4840998	0.2944499	0	-0.0066865	0.0052900	0.0034161
H	3.2273187	-1.2136795	0.5558998	0	0.0014429	-0.0005758	0.0008301
H	2.7482589	-0.6554497	-1.0572296	0	0.0004744	0.0058073	-0.0040341
H	0.8665497	-1.8789192	0.0380000	0	-0.0041031	-0.0061320	-0.0006598
H	0.9366396	-0.7688797	1.4163394	0	-0.0126123	-0.0024634	0.0030841
H	-1.5242594	-0.5731098	0.9473796	0	-0.0021668	-0.0050789	0.0001382
H	-1.4060594	1.8351193	1.5453594	0	-0.0072819	-0.0034647	0.0044915
H	-0.0396600	1.1121195	0.1055500	0	-0.0135474	0.0009243	0.0070257
H	-1.7330993	2.2844891	-0.2069999	0	-0.0046323	0.0008351	0.0012036
H	-1.9936392	0.4750298	-1.9508992	0	-0.0021604	0.0008579	-0.0033263
