18
Properties=species:S:1:pos:R:3:molID:I:1:forces_dft:R:3 Nmols=1 Comp=VC(1) energy_dft=-7425.646164283941 pbc="F F F"
C	2.7330489	-0.4534298	-0.3969799	0	-0.0053983	-0.0086088	0.0026454
C	1.3409495	-0.6885397	0.1432700	0	0.0172508	0.0034170	-0.0077760
C	0.7159497	0.2445599	0.9879796	0	-0.0014179	0.0123368	0.0072820
O	-0.3601799	0.9277896	-0.4500498	0	0.0258263	-0.0094738	0.0256407
C	-1.7603293	1.0195196	-0.5391598	0	0.0066400	0.0000470	-0.0017844
C	-2.4611690	-0.3275199	-0.4373198	0	-0.0015542	-0.0032714	-0.0053114
H	2.8751389	-0.9678396	-1.3490995	0	-0.0058630	-0.0022222	-0.0090376
H	3.5110086	-0.8080597	0.2852299	0	0.0014366	-0.0027573	-0.0040446
H	2.9060988	0.6101398	-0.5760398	0	-0.0007487	0.0029371	-0.0079957
H	1.0414296	-1.7249193	0.2793699	0	-0.0006315	-0.0029129	-0.0052714
H	0.3846299	-0.0942600	-0.6498497	0	0.0021047	0.0131831	0.0161203
H	-0.0792400	-0.0565500	1.6592193	0	-0.0028628	-0.0035127	0.0029227
H	1.1761295	1.1982795	1.2155595	0	-0.0011671	0.0002326	0.0011191
H	-2.0199392	1.4980594	-1.4917894	0	-0.0071044	0.0004388	-0.0049931
H	-2.1170892	1.6915593	0.2504199	0	-0.0035522	-0.0024572	-0.0015778
H	-3.5428486	-0.2066499	-0.5314498	0	-0.0063348	-0.0005438	-0.0023635
H	-2.2613991	-0.8128097	0.5207998	0	-0.0042897	-0.0057415	-0.0028623
H	-2.1251992	-0.9972296	-1.2320695	0	-0.0045349	-0.0025786	-0.0071920
