17
Properties=species:S:1:pos:R:3:molID:I:1:forces_dft:R:3 Nmols=1 Comp=VC(1) energy_dft=-9440.643070000327 pbc="F F F"
C	1.7876193	0.2777499	-0.9990796	0	-0.0054382	-0.0035206	0.0013241
C	1.0604396	-0.3675698	0.1488899	0	0.0004967	-0.0022901	0.0033836
O	1.6263794	-1.0650696	0.9586596	0	0.0013349	0.0010404	-0.0023856
C	-0.4164898	-0.0554700	0.2572799	0	0.0004098	-0.0068468	-0.0014318
C	-0.7238897	1.1109296	1.0496896	0	0.0032003	0.0006093	0.0224289
C	-1.2473395	-0.3655599	-0.9605696	0	0.0054844	0.0002371	0.0037349
O	-0.9506296	-1.2253295	1.4025295	0	-0.0077701	0.0109760	-0.0039242
H	1.6039093	-0.3073299	-1.9041592	0	0.0009102	-0.0046470	-0.0056942
H	2.8559389	0.2785199	-0.7953697	0	0.0042247	-0.0008550	-0.0000659
H	1.4290194	1.2912495	-1.1766895	0	-0.0014920	0.0014975	-0.0031179
H	-1.1236496	-0.1752699	1.8215793	0	0.0033096	0.0010341	-0.0046147
H	-1.5180294	1.7543893	0.6868597	0	-0.0012000	-0.0015158	0.0005607
H	0.1089700	1.6251193	1.5190794	0	0.0015892	0.0003645	0.0017486
H	-2.3001991	-0.2103999	-0.7282397	0	-0.0042042	-0.0047390	0.0011415
H	-1.1116596	-1.3928994	-1.2984695	0	0.0000681	-0.0040521	-0.0043524
H	-0.9772096	0.3162499	-1.7689593	0	-0.0062031	0.0039541	-0.0004558
H	-0.1151700	-1.5575094	1.7792593	0	0.0007684	-0.0040128	0.0002816
