16
Properties=species:S:1:pos:R:3:molID:I:1:forces_dft:R:3 Nmols=1 Comp=VC(1) energy_dft=-8864.720457230960 pbc="F F F"
O	-1.8453893	-1.0133396	1.4370794	0	0.0056824	0.0012458	-0.0088795
C	-1.2076996	-0.7988597	-0.2363499	0	-0.0024013	-0.0012801	0.0001853
C	-0.8896896	0.6653497	-0.4858798	0	-0.0007898	-0.0014781	0.0088162
C	0.5736298	0.3099299	-0.1860099	0	0.0007272	0.0008100	0.0105255
C	1.7902793	0.8267697	-0.8285097	0	0.0014695	-0.0015187	-0.0001774
N	1.4734994	1.1558496	0.5701697	0	-0.0054124	-0.0089891	-0.0035179
C	0.1521399	-1.1061096	0.1094299	0	0.0107440	0.0256412	0.0313849
H	-2.1498191	-0.1925899	1.8433893	0	-0.0030354	-0.0022592	-0.0007426
H	-1.9667392	-1.3828895	-0.7414597	0	-0.0016365	0.0011582	-0.0027466
H	-1.3532595	1.3999194	0.1729199	0	-0.0027716	-0.0024102	-0.0024843
H	-1.0773096	0.9473597	-1.5235594	0	-0.0028312	0.0002202	-0.0063986
H	1.7444393	1.6653493	-1.5152894	0	-0.0045783	0.0011693	-0.0006233
H	2.5889790	0.1193399	-1.0270496	0	-0.0038189	-0.0064615	-0.0058408
H	2.0275092	0.5909598	1.2033995	0	0.0002986	-0.0073336	-0.0005726
H	0.6882297	-2.0229592	-0.1056900	0	-0.0025266	-0.0039122	-0.0009224
H	-0.6612597	-1.0977796	1.3534895	0	0.0001813	0.0011767	-0.0070169
