13
Properties=species:S:1:pos:R:3:molID:I:1:forces_dft:R:3 Nmols=1 Comp=VC(1) energy_dft=-8808.796391549073 pbc="F F F"
C	-1.4589494	0.3837698	0.1182399	0	0.0026991	-0.0107258	0.0013794
C	-0.7981897	-0.2950099	-1.0621096	0	-0.0008862	0.0084889	-0.0025636
O	0.6046298	-0.0287900	-1.1439095	0	0.0044476	0.0025579	0.0127226
C	1.5013294	-0.6193698	0.0500600	0	-0.0014519	-0.0103618	0.0025388
O	1.4449794	-1.7719193	0.3093999	0	0.0023878	0.0167506	-0.0077710
N	2.0054992	0.5442698	0.3343398	0	0.0010796	0.0032525	-0.0067484
H	-1.3405095	1.4678294	0.0679400	0	-0.0015108	0.0044219	-0.0001829
H	-1.0402796	0.0312900	1.0621396	0	0.0017505	-0.0006840	0.0022277
H	-2.5265690	0.1586500	0.1182799	0	-0.0039195	-0.0016906	0.0006742
H	-0.8950197	-1.3816194	-1.0020196	0	-0.0064378	-0.0079041	-0.0026866
H	-1.2263395	0.0368600	-2.0088392	0	-0.0053809	-0.0036328	-0.0019436
H	2.7335589	0.6099098	1.0267896	0	0.0033704	-0.0016371	-0.0007909
H	1.1319896	0.8875096	-0.6419798	0	0.0003846	-0.0025781	-0.0026051
