15
Properties=species:S:1:pos:R:3:molID:I:1:forces_dft:R:3 Nmols=1 Comp=VC(1) energy_dft=-7828.170491498146 pbc="F F F"
C	-2.0407592	0.2485499	0.4265698	0	0.0022212	-0.0021907	0.0017063
C	-1.0163296	0.1441599	-0.6695197	0	-0.0006642	0.0002596	-0.0009825
N	-0.0897300	1.2862995	-0.8019697	0	0.0092249	-0.0013047	0.0171086
C	0.4132998	-0.0264600	-0.4098299	0	0.0136184	-0.0089583	-0.0121751
C	1.1021296	-0.2556799	0.8141097	0	0.0039078	0.0016894	0.0087070
O	2.4106490	-1.1975295	0.0512300	0	-0.0099948	0.0072134	0.0087508
H	-2.3860091	-0.7414297	0.7360497	0	-0.0058968	-0.0044009	-0.0037261
H	-1.6122694	0.7521397	1.2952095	0	-0.0066995	-0.0049593	0.0022006
H	-2.9115688	0.8202597	0.0973100	0	-0.0034202	-0.0002115	-0.0012330
H	-1.3955294	-0.2761299	-1.5990294	0	-0.0045463	-0.0039157	-0.0023035
H	0.1086599	1.4546894	-1.7817093	0	0.0025446	-0.0004924	-0.0075584
H	1.6815994	-0.8949296	-0.7494097	0	-0.0079548	0.0020693	0.0023439
H	0.7676997	-1.0315196	1.4948094	0	-0.0025884	-0.0048504	-0.0002807
H	1.6660093	0.5482098	1.2814295	0	0.0027158	-0.0008757	-0.0009655
H	3.2112088	-0.6607897	-0.0254200	0	-0.0012832	-0.0024807	-0.0018352
