10
Properties=species:S:1:pos:R:3:molID:I:1:forces_dft:R:3 Nmols=1 Comp=VC(1) energy_dft=-7738.758459151724 pbc="F F F"
C	1.4252495	-0.0089500	-0.2473899	0	0.0031408	0.0023984	-0.0020169
O	0.1780799	0.6593497	-0.3760999	0	-0.0013538	-0.0025559	0.0015271
C	-0.9500596	0.1648400	0.6864997	0	-0.0031319	0.0021266	0.0165597
O	-0.7401297	0.2566999	1.8438793	0	-0.0036583	-0.0033858	-0.0131640
N	-1.7522993	-0.2106499	-0.2629299	0	0.0246224	0.0108097	-0.0143104
H	1.7953793	0.1561499	0.7647597	0	-0.0007905	0.0019265	0.0018827
H	2.1204092	0.4189299	-0.9678996	0	-0.0004993	0.0041746	-0.0019578
H	1.3134795	-1.0821296	-0.4262599	0	-0.0041194	-0.0048099	-0.0003371
H	-0.7025997	0.1881599	-0.9947596	0	-0.0047476	-0.0008003	-0.0025499
H	-2.6716389	-0.5484498	-0.0283400	0	-0.0059870	-0.0047070	0.0006856
