14
Properties=species:S:1:pos:R:3:molID:I:1:forces_dft:R:3 Nmols=1 Comp=VC(1) energy_dft=-8370.587044720860 pbc="F F F"
C	1.2601695	-1.0048196	-0.2755499	0	0.0072503	0.0085881	-0.0094502
C	0.6291698	0.1077600	0.3872299	0	0.0042459	-0.0050137	0.0004363
O	1.6718393	1.3183395	-0.1082400	0	-0.0087913	0.0122571	0.0063746
C	-0.7098497	0.5521598	-0.1415099	0	-0.0003559	0.0028455	-0.0101721
O	-0.8000997	1.4382994	-0.9601996	0	0.0085809	-0.0090175	0.0091538
C	-1.8985393	-0.2213499	0.3519899	0	-0.0001435	0.0066870	-0.0010404
H	0.7481497	-1.4223695	-1.1368296	0	-0.0013898	0.0022185	-0.0003954
H	1.7791293	-1.7248193	0.3452299	0	-0.0001949	-0.0014368	-0.0018469
H	2.0329192	0.3537999	-0.5788398	0	-0.0076364	-0.0087014	0.0009290
H	0.7130497	0.1851199	1.4685694	0	0.0004609	-0.0011564	0.0040508
H	1.1447996	1.8112693	-0.7674897	0	0.0009431	-0.0014424	-0.0035589
H	-1.9205692	-1.1885795	-0.1541299	0	0.0007522	-0.0023519	-0.0003227
H	-2.8116489	0.3250799	0.1266099	0	-0.0038970	0.0011297	-0.0001927
H	-1.8227493	-0.4187398	1.4222094	0	0.0000389	-0.0008449	0.0042156
