14
Properties=species:S:1:pos:R:3:molID:I:1:forces_dft:R:3 Nmols=1 Comp=VC(1) energy_dft=-8369.911304522682 pbc="F F F"
O	1.2532495	-1.1777596	-1.0896496	0	0.0014563	0.0240320	0.0312969
C	0.4385398	0.5584098	-0.6839497	0	0.0129190	-0.0034652	0.0056832
C	-1.0189596	0.3226699	-0.4490098	0	0.0085460	0.0027455	-0.0083427
C	-1.0126296	-0.1665799	1.0034296	0	0.0016842	0.0024859	-0.0016899
O	0.1074900	0.4586298	1.6009394	0	0.0126892	-0.0111112	-0.0159675
C	1.0720196	0.5873497	0.5742398	0	0.0073068	0.0001638	-0.0004025
H	0.7672597	-2.0042192	-1.2034895	0	-0.0103203	-0.0047750	-0.0032897
H	0.8328397	0.9802496	-1.5949594	0	-0.0005759	-0.0033263	-0.0035012
H	-1.4911694	-0.3587798	-1.1530795	0	-0.0076887	-0.0019962	-0.0016125
H	-1.5123794	1.2982795	-0.5292798	0	-0.0031323	0.0003602	0.0053988
H	-0.8981596	-1.2586595	1.0345396	0	-0.0046225	-0.0119703	-0.0047892
H	-1.9046493	0.1098800	1.5639094	0	-0.0031567	0.0022356	0.0001355
H	1.8900993	1.2490995	0.8238497	0	0.0009295	-0.0004512	-0.0061456
H	1.4676494	-0.6206697	0.0549900	0	-0.0124122	0.0084079	-0.0103235
