16
Properties=species:S:1:pos:R:3:molID:I:1:forces_dft:R:3 Nmols=1 Comp=VC(1) energy_dft=-8402.795097452872 pbc="F F F"
C	2.5129990	-0.4242598	-0.4709398	0	-0.0105843	0.0093240	0.0099413
O	1.5545894	0.4502498	0.0696200	0	0.0073170	-0.0087806	-0.0077472
C	0.2858899	0.2778499	-0.4903898	0	0.0141882	0.0082175	-0.0059646
C	-0.8047397	0.4979698	0.3763898	0	0.0040769	-0.0031311	-0.0012165
C	-2.1395691	0.8909597	-0.1532999	0	-0.0001396	-0.0086802	0.0043461
O	-1.1045196	-1.4003295	0.6182598	0	0.0127938	0.0272084	-0.0099730
H	2.2328291	-1.4731094	-0.3112099	0	-0.0037624	-0.0100158	-0.0031549
H	2.6434889	-0.2622399	-1.5483394	0	0.0017361	0.0047335	-0.0052160
H	3.4587087	-0.2231299	0.0318000	0	0.0031017	-0.0022830	0.0018873
H	-0.2216199	-0.9779396	-0.2078199	0	-0.0016254	0.0112466	0.0005484
H	0.1885099	0.5964697	-1.5294594	0	-0.0020334	0.0028382	-0.0029870
H	-0.5909598	0.7222497	1.4162394	0	-0.0015289	-0.0021817	0.0041254
H	-2.9409089	0.5948298	0.5188498	0	-0.0026352	-0.0057313	0.0014490
H	-2.3148091	0.4417398	-1.1309996	0	-0.0034665	-0.0091627	-0.0051128
H	-2.1567891	1.9788292	-0.2688899	0	-0.0035102	-0.0002601	-0.0007422
H	-0.7199597	-1.7527493	1.4289395	0	-0.0025085	-0.0083897	-0.0015350
