11
Properties=species:S:1:pos:R:3:molID:I:1:forces_dft:R:3 Nmols=1 Comp=VC(1) energy_dft=-7300.321335289286 pbc="F F F"
C	1.2371295	-0.3807998	0.1678499	0	0.0059755	0.0126955	-0.0039677
C	0.0216400	0.3552899	0.3999299	0	-0.0061303	-0.0090038	0.0058120
O	-0.0537700	1.1830795	-1.0582996	0	0.0010020	0.0040900	-0.0085430
C	-1.2379595	-0.4459698	0.4271398	0	-0.0028073	0.0026767	-0.0149592
O	-1.9271192	-0.6523098	-0.5380298	0	0.0023364	0.0083481	0.0190518
H	2.1101592	-0.0971900	0.7423797	0	0.0025756	-0.0000029	-0.0009113
H	1.1395996	-1.4424795	-0.0358100	0	-0.0008137	-0.0047068	-0.0029880
H	0.8746797	0.5262498	-1.0810396	0	0.0032574	-0.0087209	0.0093923
H	0.0350800	1.1703596	1.1191096	0	0.0029841	0.0012338	0.0004606
H	-0.7656297	0.7382097	-1.5551694	0	-0.0020962	0.0031879	0.0013160
H	-1.4665494	-0.8998297	1.4084695	0	-0.0015852	-0.0015443	0.0004197
