14
Properties=species:S:1:pos:R:3:molID:I:1:forces_dft:R:3 Nmols=1 Comp=VC(1) energy_dft=-8370.850896090245 pbc="F F F"
C	-2.0841892	-0.2974499	0.6781297	0	0.0048864	-0.0016937	-0.0023884
C	-0.9890396	-0.0472900	-0.3331399	0	-0.0006335	0.0028795	0.0059498
O	0.1979099	0.3699099	0.3364599	0	-0.0082945	0.0044690	0.0001430
C	1.4028995	0.9179596	-0.6922997	0	0.0040549	0.0130401	-0.0150382
O	1.0584596	1.4630594	-1.6671093	0	-0.0069848	-0.0040514	0.0215731
C	2.4274690	0.2217099	-0.0269600	0	0.0064933	-0.0160796	0.0050844
H	-1.8008193	-1.0872896	1.3752095	0	-0.0028847	-0.0010699	0.0006873
H	-2.2921491	0.6077098	1.2494295	0	-0.0013612	0.0025903	0.0016015
H	-2.9996088	-0.6042698	0.1688100	0	-0.0031473	-0.0045954	0.0039793
H	-0.7793697	-0.9482096	-0.9219696	0	-0.0051699	-0.0033059	-0.0046324
H	-1.2629195	0.7477497	-1.0310296	0	-0.0053125	0.0006728	-0.0030898
H	2.5480890	0.5058798	1.0146196	0	0.0016855	-0.0013738	0.0024940
H	3.3479087	0.0743000	-0.5769698	0	0.0014692	0.0008107	0.0001267
H	1.1367696	-0.3761799	0.3514399	0	-0.0008207	0.0055962	0.0038900
