21
Properties=species:S:1:pos:R:3:molID:I:1:forces_dft:R:3 Nmols=1 Comp=VC(1) energy_dft=-8495.468905116059 pbc="F F F"
C	-3.0197388	0.5748598	-0.1818299	0	-0.0001032	-0.0083740	0.0098224
C	-1.8016893	-0.2438199	0.2233699	0	0.0056665	-0.0023593	0.0001134
C	-0.7741797	-0.3855798	-0.8954297	0	-0.0035702	-0.0014370	0.0020530
C	0.4331698	-1.2073995	-0.4952298	0	0.0190611	0.0153500	0.0297518
C	1.6998794	-0.9735596	-1.0671096	0	0.0108882	0.0128989	0.0404118
O	2.4112690	-0.1742399	0.4582098	0	-0.0005795	-0.0054052	-0.0010772
C	2.6025290	1.2172195	0.4060698	0	-0.0169371	-0.0098474	-0.0031214
H	-3.7400685	0.6525297	0.6345897	0	0.0000284	0.0021112	0.0050027
H	-3.5318986	0.1242700	-1.0357796	0	-0.0028398	0.0027750	-0.0026352
H	-2.7341789	1.5904794	-0.4683498	0	-0.0008827	0.0040143	0.0047304
H	-1.3188295	0.2112199	1.0940596	0	-0.0038922	-0.0117795	-0.0012336
H	-2.1194192	-1.2419695	0.5429098	0	-0.0027479	-0.0066076	-0.0066404
H	-1.2699895	-0.8266297	-1.7702993	0	-0.0040363	0.0068416	-0.0097725
H	-0.4492098	0.6136297	-1.2094995	0	0.0000497	0.0026200	-0.0008592
H	0.2306399	-2.2304891	-0.1879799	0	0.0004554	-0.0034907	-0.0066393
H	1.2328995	-0.5747198	0.4992298	0	0.0042711	-0.0096980	-0.0146822
H	2.4391890	-1.7615393	-1.1325195	0	-0.0024279	-0.0020940	-0.0073351
H	1.8501893	-0.1504999	-1.7608893	0	-0.0010539	0.0006922	-0.0034078
H	3.5098486	1.4539394	-0.1563800	0	0.0007598	-0.0016621	-0.0063860
H	2.7149890	1.6166793	1.4169195	0	-0.0095299	-0.0048425	-0.0007296
H	1.7530093	1.7262193	-0.0735100	0	-0.0065172	-0.0059574	-0.0002771
