21
Properties=species:S:1:pos:R:3:molID:I:1:forces_dft:R:3 Nmols=1 Comp=VC(1) energy_dft=-8495.574306663584 pbc="F F F"
C	-2.8274389	-0.1582600	-0.8858196	0	0.0071924	0.0076219	0.0055483
C	-2.3297391	-0.1085600	0.5424498	0	0.0376761	0.0023476	0.0061123
C	-1.5950394	0.9940396	1.0224196	0	0.0384253	0.0129333	-0.0011963
O	0.0333700	0.0652700	1.0790696	0	-0.0024968	-0.0076952	-0.0035125
C	1.0094896	0.3946598	0.1219099	0	-0.0088910	-0.0179540	-0.0071151
C	2.0265092	-0.7232497	-0.0337800	0	-0.0111079	0.0068032	0.0019734
C	3.1290887	-0.3674499	-1.0218096	0	-0.0003806	-0.0031838	0.0104767
H	-2.1654292	0.3972398	-1.5549994	0	-0.0015690	-0.0035476	-0.0042024
H	-2.8731288	-1.1838795	-1.2573695	0	-0.0033090	-0.0069819	-0.0063138
H	-3.8300785	0.2676499	-0.9912796	0	-0.0091858	-0.0026823	-0.0007563
H	-2.9320788	-0.6346598	1.2775095	0	-0.0039345	-0.0016315	-0.0039165
H	-0.9926996	-0.5357998	0.6786098	0	-0.0210168	0.0106298	0.0026619
H	-1.5946994	1.2543595	2.0729592	0	-0.0072013	-0.0027922	0.0044243
H	-1.2985095	1.7944893	0.3503199	0	-0.0075732	0.0004533	-0.0023363
H	1.5169394	1.3145295	0.4366298	0	-0.0070203	-0.0026426	0.0016517
H	0.5385898	0.6012697	-0.8551697	0	-0.0100787	-0.0024478	-0.0023844
H	1.5036094	-1.6278694	-0.3582399	0	-0.0060641	-0.0025134	-0.0019240
H	2.4499990	-0.9432996	0.9496196	0	-0.0066949	0.0007386	0.0046065
H	3.6829686	0.5157298	-0.6938897	0	0.0000427	0.0044207	0.0130296
H	2.7214389	-0.1528299	-2.0129692	0	0.0030309	0.0014409	-0.0018523
H	3.8440985	-1.1842395	-1.1296495	0	0.0009401	-0.0008395	-0.0011264
