11
Properties=species:S:1:pos:R:3:molID:I:1:forces_dft:R:3 Nmols=1 Comp=VC(1) energy_dft=-8772.558017688383 pbc="F F F"
O	0.4399998	1.0892196	1.3524195	0	0.0089545	-0.0045006	0.0005312
C	0.5822297	0.4622898	-0.1875599	0	0.0076549	-0.0002052	0.0079542
C	1.0615296	-0.8610997	0.1570299	0	-0.0019009	0.0145267	0.0038926
O	-0.2648399	-1.4498194	-0.3027599	0	-0.0002731	0.0010368	0.0117305
C	-0.7180197	-0.2082799	-0.5434598	0	0.0173973	-0.0016923	0.0039403
N	-1.8331093	0.2445099	-0.8917897	0	-0.0032254	0.0052925	0.0042428
H	-0.4938798	1.2232695	1.5795294	0	-0.0101384	-0.0000690	0.0009102
H	1.0423396	1.2842595	-0.7199697	0	-0.0037011	0.0012299	-0.0043632
H	1.9043093	-1.3249495	-0.3425299	0	-0.0039905	-0.0012189	-0.0009413
H	0.7674697	0.0932999	1.5755394	0	-0.0021084	-0.0066257	-0.0096818
H	-2.5107990	-0.5046398	-1.0218796	0	-0.0043063	-0.0022039	0.0027202
