16
Properties=species:S:1:pos:R:3:molID:I:1:forces_dft:R:3 Nmols=1 Comp=VC(1) energy_dft=-8402.644641587176 pbc="F F F"
C	1.8016093	0.8337497	0.2827999	0	-0.0113418	-0.0052280	0.0032877
O	0.5610498	0.4213498	0.7995797	0	0.0035413	0.0023900	0.0126108
C	-0.2489399	-0.2669299	-0.1190400	0	0.0091855	0.0158841	0.0029846
C	0.1638699	-1.6889394	-0.4132698	0	0.0044776	0.0003773	0.0000820
C	-1.6072293	0.0975600	-0.0529500	0	0.0112718	0.0247015	0.0052092
O	-1.5806994	1.0973596	-1.6630993	0	0.0032810	-0.0125710	0.0116012
H	2.4429990	-0.0157600	0.0209600	0	0.0038403	0.0011443	0.0000810
H	1.6745993	1.4608094	-0.6086698	0	-0.0014955	0.0033235	-0.0037093
H	2.2971791	1.4131394	1.0612396	0	-0.0028524	0.0034699	0.0003807
H	-0.5280098	0.5208198	-1.2553195	0	0.0002243	-0.0150681	0.0092286
H	1.1431695	-1.7318293	-0.8929796	0	-0.0001639	-0.0016228	-0.0101793
H	-0.5468998	-2.1577592	-1.0954596	0	-0.0000040	-0.0070470	-0.0051257
H	0.2126599	-2.2855991	0.5023598	0	-0.0021321	-0.0013230	-0.0035162
H	-2.3753391	-0.5829497	-0.3932198	0	-0.0038046	-0.0038344	-0.0082724
H	-1.9211093	0.8752997	0.6320898	0	0.0005268	0.0021807	-0.0031622
H	-1.5884194	2.0533792	-1.5312894	0	-0.0020476	-0.0017816	-0.0064699
