16
Properties=species:S:1:pos:R:3:molID:I:1:forces_dft:R:3 Nmols=1 Comp=VC(1) energy_dft=-7392.280956203843 pbc="F F F"
C	1.8461793	0.0416800	-0.6171398	0	-0.0002854	-0.0016522	-0.0011910
C	0.8457197	0.1401599	0.5178698	0	0.0003280	0.0001307	-0.0081138
C	-0.3833998	1.0364496	0.3264399	0	0.0013309	0.0005571	0.0147680
C	-1.2785895	-0.0351600	0.5971298	0	0.0092751	-0.0059080	-0.0039035
O	-1.8513893	-0.1753399	-1.1991095	0	0.0120149	0.0037172	0.0121564
C	-0.1602699	-1.0397696	0.6987097	0	0.0053916	0.0056208	-0.0201112
H	2.3712091	0.9899896	-0.7531897	0	-0.0000969	0.0028889	0.0004681
H	1.3419195	-0.1993699	-1.5562294	0	-0.0002637	-0.0101476	-0.0058896
H	2.5950990	-0.7306197	-0.4225798	0	-0.0002523	-0.0031877	0.0010170
H	1.3697495	0.3348299	1.4581895	0	-0.0027994	0.0028706	0.0026188
H	-0.9980796	0.6888098	-0.8990597	0	0.0012723	-0.0031130	0.0069568
H	-0.5082598	2.0833692	0.5790698	0	-0.0030536	0.0027705	0.0009865
H	-2.2556691	-0.0825400	1.0645596	0	-0.0032682	-0.0000667	0.0002555
H	-2.7233789	0.2034599	-1.3627195	0	-0.0042658	-0.0003859	-0.0050868
H	-0.1218599	-1.5289994	1.6737493	0	-0.0027739	-0.0017560	-0.0004562
H	-0.1545600	-1.7982193	-0.0832600	0	0.0002529	-0.0048844	-0.0023739
