14
Properties=species:S:1:pos:R:3:molID:I:1:forces_dft:R:3 Nmols=1 Comp=VC(1) energy_dft=-7358.105994529597 pbc="F F F"
O	-2.6106690	-0.1676499	0.2058699	0	-0.0077693	-0.0032786	0.0001665
C	-1.0396596	0.7798497	0.4958798	0	0.0271825	0.0165980	0.0001716
C	-0.2442399	-0.3762499	0.6552198	0	0.0163108	0.0015657	-0.0067826
C	0.7285897	-0.7713197	-0.4401798	0	0.0054285	0.0093028	0.0026066
C	1.9559492	0.0292600	-0.4506198	0	0.0035207	0.0064565	0.0023317
C	2.9451588	0.7050897	-0.4376998	0	-0.0268497	-0.0068334	0.0023567
H	-2.9278889	-0.1575599	-0.7059397	0	-0.0112478	-0.0023140	-0.0065683
H	-1.4046294	1.3231395	1.3571194	0	-0.0059410	-0.0016595	0.0030049
H	-1.0011396	1.3580195	-0.4223198	0	-0.0047090	-0.0029758	-0.0033847
H	-1.5813094	-0.8201397	0.3914098	0	0.0097064	0.0043317	0.0017676
H	0.0570200	-0.6205298	1.6684494	0	0.0003233	-0.0008422	0.0019453
H	0.9982096	-1.8247993	-0.3347699	0	-0.0051015	-0.0061493	0.0026598
H	0.2491499	-0.6827797	-1.4208795	0	-0.0070837	-0.0018644	-0.0030082
H	3.8280985	1.2987995	-0.4251799	0	0.0007296	-0.0001422	0.0043878
