15
Properties=species:S:1:pos:R:3:molID:I:1:forces_dft:R:3 Nmols=1 Comp=VC(1) energy_dft=-10418.529704130849 pbc="F F F"
C	-2.6511789	-0.2560499	0.0129000	0	0.0095556	0.0048122	0.0042136
O	-1.5337894	0.5716698	0.3148799	0	-0.0000231	-0.0032501	-0.0077365
C	-0.3335998	0.0909800	-0.0333800	0	0.0134038	-0.0052155	-0.0052829
O	-0.2234199	-0.9830996	-0.6410097	0	0.0114323	-0.0010732	0.0170975
C	0.7955397	0.8553097	0.4040498	0	-0.0005251	-0.0019809	0.0087955
C	2.0242592	0.4939298	-0.3373099	0	0.0009379	0.0042454	-0.0005429
O	2.2419291	-0.8931497	0.2867299	0	0.0029721	-0.0046713	-0.0031160
H	-2.5668390	-1.2219695	0.5124298	0	-0.0067547	-0.0036730	0.0039860
H	-3.5230486	0.2806099	0.3796698	0	-0.0048680	0.0005318	0.0011798
H	-2.7346989	-0.4220998	-1.0612996	0	-0.0019119	-0.0056320	-0.0052752
H	0.6536097	1.8445192	0.8135797	0	-0.0011237	0.0022371	-0.0009289
H	1.5553894	-0.4026698	1.0514396	0	0.0000620	0.0039238	-0.0006897
H	1.9545692	0.3133799	-1.4107294	0	0.0008170	-0.0031525	-0.0035121
H	2.9033389	1.0792196	-0.0861500	0	0.0024236	0.0016513	0.0019419
H	1.5248994	-1.3922394	-0.1862799	0	-0.0097551	-0.0014120	-0.0005143
