15
Properties=species:S:1:pos:R:3:molID:I:1:forces_dft:R:3 Nmols=1 Comp=VC(1) energy_dft=-6356.042082876431 pbc="F F F"
C	0.0913000	1.5554694	0.2209899	0	0.0012613	-0.0018517	0.0037699
C	0.1494400	0.0939200	-0.1686599	0	0.0018591	0.0002910	0.0222699
C	1.4711894	-0.3885399	-0.7267597	0	-0.0031221	0.0062680	0.0046392
C	-1.0354596	-0.5506398	-0.5708997	0	0.0111520	-0.0032314	0.0539511
O	-1.2023895	-1.5688394	1.0411396	0	0.0199702	0.0260574	-0.0131921
H	0.8505897	1.7924193	0.9693996	0	-0.0034586	-0.0038570	-0.0030599
H	-0.8800397	1.8229493	0.6433597	0	-0.0062941	-0.0023456	-0.0021486
H	0.2713799	2.2105491	-0.6385197	0	-0.0051761	0.0016531	-0.0040022
H	-0.2600699	-0.7018897	0.8802596	0	-0.0036351	-0.0006963	-0.0161091
H	1.7360493	0.1369199	-1.6513194	0	0.0013626	-0.0021335	-0.0077765
H	2.2824191	-0.2158899	-0.0161400	0	-0.0007915	0.0015970	-0.0043697
H	1.4485594	-1.4581394	-0.9438096	0	-0.0002899	-0.0060838	-0.0024594
H	-1.0112696	-1.4266995	-1.2063095	0	0.0016045	-0.0016512	-0.0035398
H	-1.9895692	-0.0371800	-0.5325998	0	-0.0008125	0.0008844	-0.0095592
H	-1.9293692	-1.3267095	1.6269793	0	-0.0023401	-0.0056009	-0.0084647
