16
Properties=species:S:1:pos:R:3:molID:I:1:forces_dft:R:3 Nmols=1 Comp=VC(1) energy_dft=-7392.017245427081 pbc="F F F"
C	-1.8203693	-0.5586898	0.4073998	0	0.0072407	0.0020814	-0.0051907
C	-0.6632798	0.2072499	-0.1360499	0	0.0091723	0.0370619	0.0135796
O	-1.0181596	1.9515992	0.5516498	0	-0.0005289	-0.0045901	-0.0086441
C	0.6013998	0.1950899	0.4923798	0	0.0026668	0.0221927	0.0164933
C	1.3036095	-0.8664697	1.2466995	0	-0.0053482	0.0084637	0.0080834
C	1.9376093	-0.2311999	0.0196300	0	-0.0058186	0.0024715	-0.0039623
H	-1.8043193	-0.5543698	1.4962994	0	-0.0018927	-0.0039964	0.0034434
H	-1.7153393	-1.5973494	0.0743199	0	0.0013187	-0.0094601	0.0015030
H	-2.7757189	-0.1758799	0.0542200	0	-0.0044394	-0.0059365	-0.0018546
H	-0.7201297	0.4731998	-1.1893695	0	-0.0026899	-0.0028283	-0.0047279
H	-0.9340896	2.6411490	-0.1173600	0	-0.0063440	-0.0091698	0.0001447
H	0.0557500	1.4705794	0.8348397	0	0.0065750	-0.0096663	-0.0026186
H	1.7238893	-0.6331497	2.2181091	0	-0.0007462	0.0021077	0.0011017
H	0.9753596	-1.8969293	1.1451196	0	-0.0023482	-0.0098502	-0.0011117
H	2.0136492	-0.8563197	-0.8648496	0	-0.0011768	-0.0060193	-0.0017545
H	2.7843989	0.4291098	0.1678399	0	-0.0018908	-0.0013013	-0.0008483
