19
Properties=species:S:1:pos:R:3:molID:I:1:forces_dft:R:3 Nmols=1 Comp=VC(1) energy_dft=-9473.187101170521 pbc="F F F"
C	2.2798391	0.4152398	1.0664396	0	-0.0071523	-0.0001033	-0.0005688
C	1.1002896	0.7107397	0.1565899	0	0.0034155	-0.0045126	-0.0018582
C	0.2499799	-0.4734898	-0.1387900	0	0.0110969	0.0090008	0.0302850
O	-0.4597698	-0.8094097	1.6983193	0	0.0120370	0.0039754	0.0271637
C	-1.0541096	-0.4033398	-0.6762597	0	-0.0032487	-0.0073766	0.0099684
C	-1.6273493	0.8712597	-1.2433695	0	0.0009545	0.0032854	-0.0027905
O	-1.4101694	-1.5637894	-1.4017594	0	0.0105481	0.0104538	-0.0018642
H	1.9148292	0.0709600	2.0338792	0	-0.0116963	-0.0057245	-0.0096568
H	2.9202888	-0.3617798	0.6425397	0	-0.0017058	-0.0039407	-0.0101728
H	2.8902489	1.3067495	1.2151195	0	-0.0006960	-0.0000261	-0.0026358
H	0.4827598	1.5066394	0.5753498	0	-0.0050103	0.0019068	-0.0059980
H	1.4488794	1.0752496	-0.8199897	0	-0.0014770	0.0007647	-0.0061624
H	0.7547197	-1.4300495	-0.2299999	0	-0.0000729	-0.0018270	-0.0022990
H	-0.4246098	-1.7232393	2.0013292	0	-0.0038570	-0.0061893	-0.0019680
H	-1.2272395	-0.5987398	0.6448998	0	0.0176560	0.0011149	0.0093058
H	-1.2743595	1.0445396	-2.2645091	0	-0.0032908	0.0027000	-0.0088014
H	-2.7172589	0.8134197	-1.2774795	0	-0.0084083	-0.0006555	-0.0060614
H	-1.3692795	1.7377193	-0.6345497	0	-0.0051331	-0.0003274	-0.0021079
H	-2.3289891	-1.7659293	-1.2198495	0	-0.0068089	-0.0018010	-0.0115574
