14
Properties=species:S:1:pos:R:3:molID:I:1:forces_dft:R:3 Nmols=1 Comp=VC(1) energy_dft=-9843.344021452898 pbc="F F F"
O	-1.3235195	-0.1973499	1.4766494	0	-0.0093309	-0.0076237	0.0147509
C	-0.8820396	0.2208199	-0.2627899	0	0.0090280	0.0050226	0.0028160
C	-0.0774200	1.3263395	0.1117400	0	0.0117100	0.0004306	0.0313255
O	1.3371595	1.1670195	0.0117100	0	0.0029086	0.0045726	-0.0048613
C	1.8019593	-0.0770100	-0.1118500	0	-0.0057480	-0.0011825	0.0017468
N	1.1785495	-1.1298096	-0.4308398	0	0.0017495	0.0123827	-0.0085740
C	-0.2107199	-0.9966596	-0.8253897	0	-0.0008164	0.0006082	0.0069444
H	-0.8196497	-0.9525196	1.8089793	0	-0.0072736	-0.0011826	-0.0042915
H	-1.9066392	0.4098599	-0.5581898	0	-0.0040565	-0.0059111	-0.0055114
H	-0.3624398	2.3325291	-0.1611600	0	-0.0024107	0.0030650	-0.0086466
H	-0.6242597	0.7835697	1.3441895	0	0.0047769	0.0017521	-0.0186935
H	2.8663589	-0.1194300	0.1050999	0	0.0008087	-0.0020842	-0.0035063
H	-0.2648099	-0.9018096	-1.9185593	0	0.0012053	-0.0065710	-0.0085533
H	-0.7514297	-1.9099592	-0.5755498	0	-0.0002688	-0.0066456	0.0016478
