16
Properties=species:S:1:pos:R:3:molID:I:1:forces_dft:R:3 Nmols=1 Comp=VC(1) energy_dft=-9878.398401695347 pbc="F F F"
C	-2.4867290	0.6673397	0.6962397	0	0.0091255	0.0006844	0.0025682
C	-1.6093394	-0.4846398	0.2319799	0	-0.0049510	-0.0015266	0.0006969
N	-0.3002599	-0.0315900	-0.1995599	0	0.0267883	0.0104928	-0.0082749
C	0.7606097	-0.2000099	0.5204898	0	0.0097438	-0.0040568	0.0080512
O	1.2484095	-0.6718497	1.4891694	0	-0.0108477	0.0106561	0.0133735
O	1.6979993	0.6318398	-0.5319098	0	0.0074146	0.0081559	-0.0007681
C	2.7375589	-0.1505600	-1.1032396	0	-0.0076264	0.0020815	0.0035171
H	-2.6087290	1.4053394	-0.0984299	0	-0.0061343	-0.0011006	-0.0033572
H	-3.4765386	0.3051299	0.9813996	0	-0.0058865	-0.0031795	-0.0026490
H	-2.0431092	1.1661295	1.5593794	0	-0.0030956	-0.0021815	0.0020134
H	-1.4906694	-1.2195095	1.0337396	0	0.0037339	-0.0000769	0.0017223
H	-2.0811292	-0.9970396	-0.6097198	0	0.0011797	-0.0031360	-0.0053297
H	0.6285798	0.5813698	-0.9828296	0	-0.0093219	-0.0033688	0.0094837
H	3.3182187	0.4823998	-1.7724793	0	-0.0018432	0.0017232	-0.0025360
H	3.3740287	-0.5117298	-0.2952199	0	-0.0003541	-0.0034961	0.0019665
H	2.3268691	-1.0019296	-1.6538194	0	-0.0017230	-0.0053656	-0.0026577
