18
Properties=species:S:1:pos:R:3:molID:I:1:forces_dft:R:3 Nmols=1 Comp=VC(1) energy_dft=-8898.183368213624 pbc="F F F"
C	2.1061392	-0.1085400	-1.4782894	0	-0.0009666	-0.0024063	0.0017283
C	1.2311695	-0.6911497	-0.4050199	0	0.0023317	0.0065277	-0.0006002
C	1.3703095	-0.3177099	1.0225696	0	-0.0043753	-0.0024458	0.0029181
N	0.2667399	0.1887899	0.2330799	0	-0.0019518	0.0005989	0.0007890
C	-1.0361696	-0.3377799	0.5300898	0	0.0175971	0.0228379	0.0263280
C	-2.1305992	0.2634199	-0.1309099	0	0.0047364	0.0003103	0.0071736
O	-2.6961089	1.2330595	1.3259295	0	-0.0117018	0.0049685	0.0004416
H	1.5879794	-0.0963700	-2.4398890	0	-0.0044351	0.0002942	-0.0020449
H	3.0230588	-0.6911297	-1.5934394	0	0.0030612	-0.0004520	0.0032543
H	2.3773290	0.9177597	-1.2271295	0	0.0011029	0.0041872	0.0006449
H	0.8844497	-1.7074393	-0.5867798	0	0.0009838	-0.0035191	-0.0080209
H	2.1156892	0.4120099	1.3214995	0	-0.0027774	-0.0010012	-0.0092667
H	1.1451396	-1.0755396	1.7677593	0	-0.0044860	-0.0042476	-0.0020618
H	-1.1106595	-1.4015795	0.7671197	0	-0.0036802	-0.0029523	0.0000949
H	-1.7218993	0.4965098	1.4847994	0	0.0044257	-0.0135655	-0.0166471
H	-1.9568892	1.0677096	-0.8369597	0	0.0005668	0.0007567	-0.0011510
H	-3.0534988	-0.2857099	-0.2612799	0	-0.0034803	-0.0025313	0.0004118
H	-2.4183290	2.1546992	1.2534795	0	-0.0042718	-0.0001616	-0.0054237
