14
Properties=species:S:1:pos:R:3:molID:I:1:forces_dft:R:3 Nmols=1 Comp=VC(1) energy_dft=-8368.848405945437 pbc="F F F"
C	1.1954195	-0.6577398	0.8994997	0	-0.0061080	0.0004463	0.0035808
C	0.3333399	0.4399898	0.3726898	0	0.0106459	0.0038202	0.0052867
O	1.3901595	1.1214796	-0.9589596	0	0.0093289	-0.0054295	-0.0052950
C	-0.7189497	0.1499899	-0.5536898	0	0.0145833	0.0127856	0.0029060
C	-1.8897893	-0.6896697	-0.3868798	0	-0.0020825	0.0074458	-0.0015942
O	-2.0167092	0.7292697	-0.3966899	0	0.0006643	-0.0066047	-0.0052084
H	1.3210895	-1.4402495	0.1519800	0	0.0011520	-0.0006510	-0.0006865
H	2.1743191	-0.3029599	1.2160795	0	0.0002518	0.0032121	-0.0018851
H	0.6866897	-1.0914096	1.7658393	0	-0.0023161	0.0019668	0.0014843
H	0.2545499	1.3346495	0.9879596	0	0.0006932	0.0028459	0.0016660
H	1.3283395	2.0853092	-0.9796896	0	-0.0013384	-0.0018661	-0.0035353
H	0.4504898	0.6950197	-1.4153395	0	-0.0104535	-0.0049455	0.0093442
H	-2.1107892	-1.1553796	0.5726398	0	-0.0083651	-0.0003619	0.0002124
H	-2.3099191	-1.2024295	-1.2482995	0	-0.0007661	-0.0032516	-0.0051573
