18
Properties=species:S:1:pos:R:3:molID:I:1:forces_dft:R:3 Nmols=1 Comp=VC(1) energy_dft=-7425.974994355154 pbc="F F F"
C	-1.4218894	0.6786897	-1.5134394	0	0.0025953	0.0033191	0.0035908
C	-0.5971098	-0.2376799	-0.6073998	0	0.0000287	0.0034319	0.0054530
C	-1.5003494	-0.9555496	0.3930898	0	0.0123593	-0.0000825	-0.0001512
C	0.5141298	0.5122698	0.1030800	0	0.0124027	0.0107264	0.0095032
C	1.7479993	0.7504797	-0.5330998	0	0.0122699	0.0231098	0.0329105
O	2.6827790	-0.5377298	0.4755598	0	0.0009101	-0.0082964	-0.0043660
H	-0.7949797	1.1599895	-2.2673791	0	-0.0051849	-0.0018773	-0.0062963
H	-1.8994593	1.4685594	-0.9268497	0	-0.0033607	-0.0035514	0.0024257
H	-2.2097291	0.1257600	-2.0319592	0	-0.0049474	-0.0014244	-0.0014850
H	-0.1296600	-1.0021496	-1.2424095	0	-0.0028250	-0.0022668	-0.0010511
H	-1.9668892	-0.2374999	1.0737096	0	-0.0024405	-0.0042505	-0.0027488
H	-0.9340596	-1.6651494	0.9991996	0	-0.0041060	-0.0074965	-0.0006055
H	-2.3017091	-1.4989694	-0.1130599	0	-0.0070109	-0.0037216	-0.0041811
H	0.2011199	1.2474295	0.8413997	0	0.0018811	0.0011699	0.0026620
H	1.4489194	-0.3585799	0.6834397	0	-0.0103191	0.0178180	-0.0133219
H	2.3809090	1.5769294	-0.2390899	0	0.0020634	-0.0028225	0.0037581
H	1.9453592	0.3577198	-1.5260994	0	0.0003650	0.0012507	-0.0032821
H	2.8950888	-1.3437895	-0.0106900	0	-0.0045067	-0.0054023	-0.0033709
