16
Properties=species:S:1:pos:R:3:molID:I:1:forces_dft:R:3 Nmols=1 Comp=VC(1) energy_dft=-7392.393085915300 pbc="F F F"
C	-1.9804592	-0.1881899	0.7248397	0	0.0027156	0.0222647	-0.0090707
C	-0.6835997	-0.1569599	0.1539099	0	0.0032339	0.0542981	-0.0023418
O	-0.9975396	1.6352094	-0.5329598	0	0.0009092	-0.0117569	0.0222263
C	0.5300398	0.0281800	0.9558796	0	0.0028516	0.0020572	-0.0090024
C	1.5440294	-1.0951496	0.9131396	0	-0.0008910	0.0020065	0.0027204
C	1.8523793	0.2245599	0.2882499	0	-0.0016745	-0.0046644	0.0082398
H	-2.0530192	-0.1273599	1.8048893	0	-0.0035559	-0.0039587	0.0014208
H	-2.7297189	-0.7984297	0.2337099	0	0.0018227	-0.0101780	-0.0085315
H	-1.9229493	1.0354596	0.1163299	0	0.0040226	-0.0175300	-0.0006895
H	-0.5260698	-0.6225398	-0.8153697	0	0.0008930	-0.0046516	-0.0036499
H	-1.1366996	1.7014793	-1.4844294	0	-0.0031386	-0.0084155	-0.0066769
H	0.3749398	0.5096198	1.9131892	0	-0.0028815	-0.0025589	0.0008270
H	2.0260692	-1.3604595	1.8442993	0	-0.0022525	-0.0011161	0.0048378
H	1.3364395	-1.9350593	0.2625299	0	0.0015282	-0.0019639	-0.0004967
H	1.8488193	0.2941299	-0.7919597	0	-0.0039192	-0.0049796	-0.0057070
H	2.5621590	0.8755797	0.7795997	0	-0.0035456	-0.0014284	0.0039923
