13
Properties=species:S:1:pos:R:3:molID:I:1:forces_dft:R:3 Nmols=1 Comp=VC(1) energy_dft=-10382.971919077741 pbc="F F F"
O	0.8152497	0.7387497	-1.2522795	0	-0.0032936	0.0077621	-0.0038533
C	0.1127699	-0.0592000	-0.0359600	0	0.0032544	-0.0028739	0.0059488
C	-1.0984596	-0.8694097	-0.4470498	0	0.0023533	0.0147819	0.0014224
O	-2.0001392	0.1526899	-0.0526800	0	0.0098968	0.0064118	-0.0159060
C	-0.8693497	0.9593396	0.3934299	0	-0.0009418	0.0168476	0.0047226
C	1.2318395	-0.5121298	0.8037697	0	0.0054563	0.0027285	-0.0012495
O	2.3376591	-0.0226900	0.7352597	0	-0.0167664	-0.0033188	-0.0006413
H	1.7176093	0.9159297	-0.9074897	0	0.0059613	-0.0033871	0.0061782
H	-1.2026295	-1.7653393	0.1737999	0	0.0040046	-0.0112495	-0.0007967
H	-1.1616995	-1.1376795	-1.5044694	0	-0.0024106	-0.0073396	-0.0070112
H	0.1430999	1.5049894	-0.9089297	0	-0.0017842	-0.0021822	0.0026044
H	-0.9417996	1.2989195	1.4260994	0	-0.0078462	0.0005253	-0.0002497
H	0.9792796	-1.2733595	1.5609394	0	-0.0011446	-0.0079707	0.0008524
