16
Properties=species:S:1:pos:R:3:molID:I:1:forces_dft:R:3 Nmols=1 Comp=VC(1) energy_dft=-7391.799444674800 pbc="F F F"
C	2.2168091	-0.0348300	0.6589997	0	-0.0091245	0.0042554	0.0033063
O	1.2438395	-0.8576296	0.0759000	0	-0.0089499	-0.0056379	-0.0161415
C	-0.2599899	-0.3629299	-1.0083996	0	0.0271138	0.0012297	0.0229963
C	-0.7246397	1.0063696	-0.5835698	0	-0.0025821	0.0076937	0.0015068
C	-1.7680493	0.3064599	0.3344499	0	0.0005749	-0.0061573	0.0032914
C	-1.1503795	-1.0198296	-0.1207299	0	0.0072322	-0.0030947	0.0049700
H	1.7931793	0.8949396	1.0640196	0	-0.0101585	-0.0018589	-0.0021477
H	2.9821488	0.2250599	-0.0789900	0	-0.0008921	0.0010468	-0.0076833
H	2.7094990	-0.5632698	1.4806994	0	-0.0019334	-0.0050596	0.0010415
H	0.2072099	-0.6604997	-1.9378492	0	-0.0030497	-0.0013170	-0.0011719
H	0.0173600	1.6438193	-0.1032699	0	-0.0016599	-0.0013287	0.0008029
H	-1.1673095	1.5584594	-1.4149694	0	-0.0041101	0.0014956	-0.0028426
H	-2.7936789	0.4797398	0.0044500	0	-0.0073917	-0.0032097	-0.0009055
H	-1.7039593	0.5380098	1.3990994	0	-0.0085209	-0.0030765	0.0004845
H	0.0932000	-1.1247996	0.4972698	0	-0.0015374	0.0069375	-0.0029052
H	-1.6287393	-1.9830692	-0.2484599	0	-0.0052691	-0.0032406	-0.0032645
