16
Properties=species:S:1:pos:R:3:molID:I:1:forces_dft:R:3 Nmols=1 Comp=VC(1) energy_dft=-8866.691164780359 pbc="F F F"
C	-1.3232395	-0.7909797	-0.8943097	0	-0.0029302	0.0099845	0.0038617
C	-0.8099797	0.0760100	0.2104499	0	0.0062173	-0.0035135	0.0060330
O	-0.6989397	-1.0036596	1.5634194	0	0.0089695	0.0108331	-0.0014204
C	0.5834998	0.4945298	0.2580899	0	0.0071721	0.0025769	0.0173814
C	1.5669794	0.0571900	-0.8109797	0	-0.0076994	0.0097332	-0.0010516
C	0.7941997	1.7859893	0.8291297	0	-0.0006716	-0.0048280	-0.0015566
N	0.9606496	2.8161889	1.3210295	0	-0.0016830	0.0078278	-0.0076671
H	-1.3576695	-0.1938099	-1.8092993	0	-0.0031080	-0.0013998	-0.0042868
H	-2.3248491	-1.1589195	-0.6795397	0	-0.0034723	-0.0014603	-0.0004094
H	-0.6654098	-1.6399894	-1.0717796	0	0.0007118	-0.0026881	0.0000248
H	-1.5332094	0.7932397	0.5906297	0	-0.0030548	-0.0007713	0.0004882
H	-1.1291496	-0.6311797	2.3445891	0	-0.0032358	-0.0001973	-0.0015745
H	0.3261599	-0.4917898	1.3885794	0	-0.0026778	0.0010731	-0.0019611
H	2.5808790	0.3146899	-0.5063898	0	0.0030473	-0.0014643	0.0001813
H	1.3846095	0.5361398	-1.7787593	0	-0.0014167	0.0012187	-0.0034786
H	1.5442794	-1.0232596	-0.9613196	0	-0.0007596	-0.0031753	-0.0018576
