19
Properties=species:S:1:pos:R:3:molID:I:1:forces_dft:R:3 Nmols=1 Comp=VC(1) energy_dft=-9473.180094837209 pbc="F F F"
C	2.6989589	-0.4506498	0.5097598	0	-0.0011558	0.0042405	0.0021929
C	1.5145094	0.1420299	-0.2382099	0	0.0015602	-0.0013796	0.0014080
C	0.2078199	-0.6041098	0.0119500	0	-0.0026087	0.0024849	0.0049320
O	-0.1416099	-0.6144397	1.3885494	0	-0.0006681	-0.0114753	-0.0087196
C	-0.9194896	-0.0361100	-0.8303297	0	-0.0004152	0.0303546	0.0124106
C	-2.2582091	-0.2708799	-0.4601698	0	0.0135417	0.0295197	0.0145258
O	-2.4306590	1.4315494	0.3586699	0	-0.0056606	0.0018743	0.0001625
H	3.6069986	0.1288199	0.3345899	0	0.0020979	0.0052388	0.0040250
H	2.5086890	-0.4699698	1.5835394	0	0.0021181	-0.0006999	0.0040872
H	2.8916189	-1.4777694	0.1898499	0	0.0014426	-0.0030554	-0.0017911
H	1.7100093	0.1418799	-1.3157195	0	-0.0043533	-0.0031117	-0.0036772
H	1.3682195	1.1906495	0.0459400	0	-0.0035031	-0.0018030	-0.0029826
H	0.3676999	-1.6635493	-0.2243499	0	0.0004943	-0.0098615	0.0010219
H	-0.4274198	0.2711399	1.6355294	0	-0.0053649	-0.0032928	0.0006458
H	-0.7152497	0.1030900	-1.8880392	0	-0.0000308	0.0005319	-0.0033312
H	-1.3864195	1.1696095	-0.2974499	0	0.0009586	-0.0177396	-0.0087683
H	-2.4939090	-0.8279997	0.4375198	0	0.0000619	-0.0030489	0.0030387
H	-3.0522988	-0.1951699	-1.1928395	0	-0.0044583	-0.0005964	-0.0014682
H	-3.0670288	2.0626192	0.0001000	0	-0.0042043	-0.0085658	-0.0021808
