14
Properties=species:S:1:pos:R:3:molID:I:1:forces_dft:R:3 Nmols=1 Comp=VC(1) energy_dft=-8370.568544704332 pbc="F F F"
C	-1.1051295	-0.9836096	0.4211799	0	0.0011092	0.0177969	-0.0089592
C	-0.2674299	0.0861600	-0.2404999	0	0.0087031	-0.0041580	0.0134517
C	1.1059496	-0.1823199	-0.5996698	0	0.0015846	-0.0009915	-0.0057605
O	1.8393593	0.6146998	0.6771298	0	-0.0006696	-0.0034598	0.0014692
C	-0.9446096	1.1318695	-0.9756396	0	-0.0068940	0.0011506	-0.0052112
O	-2.1350292	1.3615795	-0.9495896	0	0.0109846	-0.0048451	-0.0002825
H	-1.9742092	-0.5293398	0.8957997	0	-0.0049170	0.0026954	-0.0007934
H	-0.5477898	-1.5277694	1.1886996	0	0.0003000	0.0013604	-0.0015291
H	-1.4818294	-1.7157293	-0.2996199	0	-0.0006272	-0.0045255	0.0003501
H	0.6915697	0.7714897	0.7641897	0	-0.0029401	0.0009588	-0.0003881
H	1.4854794	-1.1979695	-0.5217098	0	0.0029971	-0.0032629	-0.0001433
H	1.5309994	0.3675198	-1.4339494	0	-0.0032783	0.0021514	-0.0054768
H	2.1637991	-0.0033100	1.3467195	0	-0.0023910	-0.0015060	0.0015567
H	-0.2700099	1.7772893	-1.5867394	0	0.0012464	-0.0003728	-0.0006999
