16
Properties=species:S:1:pos:R:3:molID:I:1:forces_dft:R:3 Nmols=1 Comp=VC(1) energy_dft=-8866.309686309954 pbc="F F F"
C	-1.4233094	-0.3181899	-0.8285597	0	0.0141413	0.0201902	0.0210977
C	-0.8033197	0.0537500	0.3807998	0	0.0119228	0.0203231	0.0090950
O	-0.4860598	-1.7447993	0.8906297	0	-0.0039277	0.0216449	-0.0036475
C	0.6154697	0.5847897	0.4718098	0	0.0009351	0.0025582	-0.0042605
C	1.5975994	-0.0196400	-0.5314798	0	-0.0079947	0.0021294	0.0013580
C	0.5269798	2.0430092	0.3104499	0	-0.0039240	-0.0046408	0.0018929
N	0.4469198	3.1798887	0.1811499	0	-0.0108296	-0.0137961	-0.0014754
H	-0.8759096	-0.2080799	-1.7558893	0	0.0016555	-0.0044152	-0.0044340
H	-2.4983490	-0.2071999	-0.8949797	0	-0.0040120	-0.0037569	0.0008933
H	-1.1075796	-1.5175094	-0.1823899	0	0.0091308	0.0120358	0.0023468
H	-1.4299394	0.3356999	1.2206195	0	-0.0043782	-0.0033723	-0.0031432
H	-1.0217496	-2.0727392	1.6224594	0	0.0025091	-0.0117910	-0.0034875
H	0.9796896	0.3992599	1.4836594	0	-0.0054548	-0.0066864	0.0003117
H	2.5933690	0.3899798	-0.3664099	0	0.0010004	-0.0034977	-0.0008035
H	1.3086195	0.2028399	-1.5578694	0	-0.0054511	-0.0084669	-0.0040003
H	1.6298493	-1.0993095	-0.3941599	0	-0.0009603	-0.0139019	-0.0007210
