14
Properties=species:S:1:pos:R:3:molID:I:1:forces_dft:R:3 Nmols=1 Comp=VC(1) energy_dft=-7357.967092959640 pbc="F F F"
O	-1.2218495	1.6731394	-0.3985099	0	-0.0036204	0.0073007	-0.0052091
C	-0.7510397	0.3273999	0.7366997	0	-0.0047590	-0.0056753	0.0026818
C	-1.0396596	-0.7207397	-0.2044099	0	0.0200378	0.0230146	0.0098629
C	0.4150698	-1.2101195	-0.0468500	0	0.0020802	0.0062344	0.0002734
C	1.3323395	-0.1941799	-0.5913198	0	-0.0055314	-0.0034647	-0.0040509
C	0.7174997	0.0582000	0.7720697	0	-0.0105945	-0.0055141	0.0021907
H	-0.4638498	2.2066892	-0.6664097	0	-0.0071289	-0.0033190	-0.0021253
H	-1.3087095	0.6893697	1.5938394	0	-0.0009179	-0.0018949	0.0014316
H	-1.2240095	0.6421097	-0.9227396	0	0.0013185	-0.0085675	0.0104184
H	-1.9033692	-1.3674295	-0.1224700	0	-0.0011878	-0.0025165	-0.0007110
H	0.7274597	-2.2064291	0.2320699	0	0.0035551	-0.0051660	-0.0009937
H	1.0227396	0.3910198	-1.4520694	0	-0.0026221	-0.0017382	-0.0014882
H	2.3953891	-0.3996498	-0.5336398	0	0.0007609	-0.0063565	-0.0010259
H	1.3383295	0.1921999	1.6452993	0	-0.0014527	-0.0042300	-0.0005066
