13
Properties=species:S:1:pos:R:3:molID:I:1:forces_dft:R:3 Nmols=1 Comp=VC(1) energy_dft=-9372.324351718509 pbc="F F F"
C	-1.2667095	0.9703796	0.1921199	0	-0.0049059	0.0005115	0.0022956
C	-0.5312198	-0.2435899	0.4244898	0	-0.0003849	-0.0054208	0.0026352
O	-1.6760994	-1.3390395	-0.1407400	0	0.0035257	0.0035992	0.0014232
C	0.6566898	-0.4911298	-0.4599198	0	-0.0029012	0.0003920	-0.0085842
O	0.5807697	-1.0603096	-1.5235694	0	-0.0061012	-0.0021133	0.0058533
C	1.9010493	0.0647300	0.0375200	0	0.0084006	0.0062706	-0.0001974
C	2.9224488	0.5093498	0.4759898	0	-0.0119485	-0.0087495	-0.0041402
H	-1.6246294	1.5055794	1.0626896	0	-0.0048487	-0.0029053	0.0010165
H	-2.1071292	-0.2914699	-0.2592599	0	0.0052956	0.0021837	0.0062735
H	-0.9439596	1.5930194	-0.6357097	0	0.0029679	0.0002560	0.0007657
H	-0.3876598	-0.5827698	1.4464194	0	-0.0027482	-0.0024807	0.0019614
H	-1.3324395	-1.6286294	-1.0063996	0	0.0034133	-0.0053474	-0.0025607
H	3.8355685	0.9056897	0.8560597	0	0.0000624	0.0050355	0.0021607
