12
Properties=species:S:1:pos:R:3:molID:I:1:forces_dft:R:3 Nmols=1 Comp=VC(1) energy_dft=-8798.761178047149 pbc="F F F"
O	-1.6115593	-0.6571397	-0.9325096	0	-0.0080359	0.0002205	0.0001167
C	-0.8827396	-0.6200798	0.4844798	0	0.0011681	0.0022745	-0.0031188
C	0.4619798	-0.2480899	0.0171000	0	-0.0042015	0.0065493	-0.0026678
C	0.8570297	1.1219095	0.1455299	0	0.0041891	0.0138678	0.0011882
C	1.1422296	2.2857991	0.2253999	0	-0.0037896	-0.0178051	-0.0054300
C	1.4682794	-1.2607695	0.0554500	0	0.0087358	-0.0068344	0.0031247
N	2.2512191	-2.1053592	0.0601900	0	-0.0137924	-0.0047200	-0.0014229
H	-2.1876592	0.1117100	-1.0518096	0	-0.0014517	0.0002817	-0.0005435
H	-1.4216195	0.1174499	1.0727196	0	-0.0020691	-0.0003849	0.0032014
H	-1.0058596	-1.6325194	0.8524896	0	-0.0024789	-0.0032198	-0.0002657
H	-0.5409398	-0.4055198	-1.2080595	0	0.0059054	0.0023168	0.0067451
H	1.4161895	3.3105387	0.3076299	0	0.0023087	0.0034508	0.0032762
