11
Properties=species:S:1:pos:R:3:molID:I:1:forces_dft:R:3 Nmols=1 Comp=VC(1) energy_dft=-4715.214892531912 pbc="F F F"
C	1.5062694	0.3278899	1.0251896	0	-0.0009548	0.0079864	0.0010317
C	1.2874795	0.2850599	-0.4581898	0	-0.0001627	-0.0051653	0.0005225
C	0.1986899	0.7438597	-1.0731796	0	0.0065294	-0.0023709	0.0082213
N	-0.8759797	1.3844394	-0.4678998	0	0.0013010	0.0030070	-0.0111743
H	-1.7596493	1.2790395	-0.9353296	0	-0.0041324	-0.0009644	-0.0054427
H	-0.9538096	1.2623795	0.5286198	0	-0.0010964	-0.0058433	0.0081569
H	0.1217799	0.6831797	-2.1534092	0	0.0005731	-0.0000947	-0.0065721
H	2.0745892	-0.1232999	-1.0790596	0	0.0018480	0.0000665	0.0006639
H	0.5905098	0.1048500	1.5828594	0	-0.0028165	0.0016346	0.0027160
H	1.8582593	1.3082595	1.3626495	0	0.0004790	0.0024051	0.0009552
H	2.2508991	-0.4065898	1.3329695	0	0.0018085	-0.0029908	-0.0019856
