5
Properties=species:S:1:pos:R:3:molID:I:1:forces_dft:R:3 Nmols=1 Comp=VC(2) energy_dft=-4152.062806683744 pbc="F F F"
O	2.4587990	-0.2269799	0.4124199	0	0.0087112	0.0079194	-0.0027212
C	1.6255494	0.5208898	0.1277199	0	0.0102112	-0.0064375	0.0007189
C	0.6821697	1.3670495	-0.1943699	0	-0.0091127	-0.0061698	0.0003248
H	0.1597100	1.2458395	-1.1301596	0	-0.0036147	-0.0014209	-0.0000866
H	0.4434998	2.1733591	0.4812098	0	-0.0005182	0.0034103	0.0012773
