6
Properties=species:S:1:pos:R:3:molID:I:1:forces_dft:R:3 Nmols=1 Comp=VC(2) energy_dft=-6198.439328298117 pbc="F F F"
O	-1.2248695	-0.8555397	0.2264799	0	0.0055214	0.0053226	0.0129619
C	-0.1598099	-1.0681196	-0.6313398	0	-0.0028301	0.0020857	-0.0045034
C	0.9829996	-1.5330294	-0.1688300	0	0.0117991	-0.0080488	-0.0015800
O	1.9967492	-1.9337292	0.2210599	0	-0.0071064	0.0037279	0.0024636
H	-0.2122499	-0.7550697	-1.6663693	0	-0.0037261	0.0042538	-0.0029440
H	-1.8642692	-1.5607594	0.1029500	0	0.0010478	0.0007231	0.0004187
