4
Properties=species:S:1:pos:R:3:molID:I:1:forces_dft:R:3 Nmols=1 Comp=VC(1) energy_dft=-3116.136154705032 pbc="F F F"
C	1.2994895	-1.7305793	-0.0917900	0	0.0068648	0.0005238	-0.0060128
O	1.8767693	-1.6812194	-1.1378696	0	-0.0018944	0.0002977	0.0131609
H	1.7501793	-1.3496095	0.8446597	0	0.0064655	-0.0061068	0.0013717
H	0.2829799	-2.1599892	-0.0040100	0	-0.0044394	0.0012050	0.0007605
