4
Properties=species:S:1:pos:R:3:molID:I:1:forces_dft:R:3 Nmols=1 Comp=VC(2) energy_dft=-3115.404451813735 pbc="F F F"
C	2.1650692	1.2613595	0.8806796	0	-0.0027687	0.0067189	0.0083874
O	1.3928794	2.1277892	1.1688195	0	0.0082804	0.0085787	-0.0005521
H	2.2037792	0.3037699	1.4345494	0	0.0027608	-0.0018193	0.0007636
H	2.8818589	1.3705894	0.0442300	0	-0.0018628	-0.0008386	-0.0077272
