7
Properties=species:S:1:pos:R:3:molID:I:1:forces_dft:R:3 Nmols=1 Comp=VC(1) energy_dft=-4184.912204521515 pbc="F F F"
C	1.8691393	-0.0762100	-0.0284600	0	0.0004380	0.0058664	-0.0005260
C	1.4421195	0.0643900	1.4012994	0	-0.0127239	0.0022023	0.0006349
O	0.3854998	0.5076398	1.7571893	0	0.0188815	-0.0002161	-0.0050784
H	2.1846491	-0.2777299	2.1534391	0	0.0021508	-0.0004070	0.0028411
H	1.0992795	0.2969499	-0.7009597	0	-0.0034002	0.0014780	0.0006864
H	2.8041789	0.4679398	-0.1843999	0	0.0028841	0.0007250	0.0022322
H	2.0754992	-1.1284995	-0.2418299	0	-0.0041921	-0.0047691	-0.0017351
