13
Properties=species:S:1:pos:R:3:molID:I:1:forces_dft:R:3 Nmols=1 Comp=VC(1) energy_dft=-6322.263361675612 pbc="F F F"
C	2.2029891	0.6859797	-0.5567698	0	-0.0093132	0.0033182	0.0052651
O	0.8276697	0.8570597	-0.2977399	0	0.0019370	-0.0021772	-0.0018895
C	0.0035100	0.0469500	-1.0106896	0	-0.0045196	0.0017542	0.0025869
C	-1.3137495	0.0484700	-0.8596697	0	-0.0008773	-0.0008340	-0.0049861
C	-2.0737392	0.9144797	0.0938700	0	-0.0023903	0.0010188	0.0045123
H	-2.7556289	1.5807194	-0.4412599	0	-0.0015383	-0.0001573	0.0038678
H	-2.6824690	0.3100799	0.7711397	0	0.0008441	0.0024823	0.0031143
H	-1.4019395	1.5270694	0.6934697	0	0.0040999	0.0005100	0.0001623
H	-1.8712893	-0.6357898	-1.4883994	0	0.0005190	-0.0033169	-0.0003568
H	0.4950398	-0.6092897	-1.7250693	0	0.0018439	-0.0020283	-0.0010608
H	2.5319690	-0.3272599	-0.3030199	0	0.0022148	-0.0044102	0.0019243
H	2.4373891	0.8884497	-1.6072894	0	-0.0024127	-0.0001027	-0.0060019
H	2.7365289	1.3987794	0.0688499	0	0.0008138	0.0009164	-0.0000345
