8
Properties=species:S:1:pos:R:3:molID:I:1:forces_dft:R:3 Nmols=1 Comp=VC(2) energy_dft=-5117.732808115176 pbc="F F F"
N	2.8101189	0.0226700	0.8968197	0	0.0017555	-0.0063103	-0.0093317
C	1.9596192	0.6900497	-0.0238700	0	-0.0026248	0.0001424	0.0031793
C	0.6515997	0.6249897	-0.0244400	0	-0.0020552	-0.0029983	0.0009582
N	-0.5520998	0.4096198	-0.1225999	0	0.0025275	-0.0031367	-0.0008212
H	-1.1369595	1.1038796	0.3393899	0	-0.0008884	0.0009622	0.0005803
H	2.4386390	1.2452995	-0.8209097	0	-0.0006398	0.0041038	-0.0000801
H	3.3276787	0.6681597	1.4771294	0	-0.0008631	0.0020794	0.0029884
H	2.3044491	-0.6193098	1.4884594	0	-0.0004787	-0.0026785	0.0027501
