6
Properties=species:S:1:pos:R:3:molID:I:1:forces_dft:R:3 Nmols=1 Comp=VC(1) energy_dft=-2138.595929197959 pbc="F F F"
C	-0.2656399	1.2440695	0.2873799	0	-0.0025446	0.0041333	0.0019858
C	-1.1793595	0.3036699	0.4550398	0	0.0018827	-0.0028168	-0.0017209
H	-1.9019292	0.0680000	-0.3179499	0	0.0008285	-0.0029607	-0.0050561
H	-1.2430795	-0.2696299	1.3728895	0	0.0000909	0.0016133	0.0025283
H	-0.2018299	1.8171593	-0.6305898	0	0.0000738	-0.0024171	-0.0028880
H	0.4570598	1.4795994	1.0602996	0	-0.0003397	0.0024602	0.0051497
