4
Properties=species:S:1:pos:R:3:molID:I:1:forces_dft:R:3 Nmols=1 Comp=VC(2) energy_dft=-3115.405332753459 pbc="F F F"
C	-1.7219393	-1.7220393	-0.0663800	0	-0.0100857	-0.0117583	-0.0024586
O	-2.7846689	-2.2388691	-0.2488899	0	-0.0038789	0.0105790	0.0056273
H	-1.4314294	-1.3125395	0.9200596	0	-0.0034761	0.0051790	-0.0019228
H	-0.9708896	-1.6239494	-0.8736896	0	0.0043565	-0.0029564	-0.0004640
