7
Properties=species:S:1:pos:R:3:molID:I:1:forces_dft:R:3 Nmols=1 Comp=VC(1) energy_dft=-4184.909785392833 pbc="F F F"
C	2.4847090	0.4270498	-0.3070099	0	-0.0163711	-0.0018045	0.0035243
C	1.6514093	0.3324099	0.9351096	0	-0.0003700	0.0042423	0.0005218
O	1.0208696	1.2391795	1.4039895	0	-0.0051244	-0.0135213	-0.0059846
H	1.6451693	-0.6636997	1.4269194	0	0.0036351	-0.0049917	-0.0009099
H	2.4304090	1.4268894	-0.7334297	0	-0.0014401	0.0052852	-0.0006604
H	3.5217486	0.1771499	-0.0673600	0	0.0041708	-0.0025856	-0.0003768
H	2.1406791	-0.3122899	-1.0348496	0	0.0013327	0.0003096	-0.0023088
