10
Properties=species:S:1:pos:R:3:molID:I:1:forces_dft:R:3 Nmols=1 Comp=VC(1) energy_dft=-5253.270811734597 pbc="F F F"
C	-1.3821895	0.2607899	0.5784098	0	0.0020146	0.0017995	-0.0022216
C	-0.9160596	1.4584694	0.2638799	0	0.0007884	-0.0074339	0.0040595
H	-0.9836896	2.2873791	0.9568796	0	-0.0002031	0.0020431	0.0012783
H	-0.4688398	1.6551493	-0.7037697	0	-0.0008985	0.0044512	-0.0020518
C	-1.3322695	-0.9485896	-0.3081999	0	0.0053134	0.0031868	-0.0026314
O	-0.6232097	-0.7677097	-1.5101594	0	-0.0146062	-0.0022427	-0.0077968
H	0.2853199	-0.5463698	-1.2938095	0	0.0042679	0.0040120	0.0040443
H	-2.3499291	-1.2282895	-0.5954598	0	-0.0038775	-0.0009382	-0.0005661
H	-0.9284096	-1.7951293	0.2650099	0	-0.0040792	-0.0026249	0.0003334
H	-1.8450893	0.0992199	1.5491894	0	-0.0017047	-0.0009325	0.0020812
