7
Properties=species:S:1:pos:R:3:molID:I:1:forces_dft:R:3 Nmols=1 Comp=VC(1) energy_dft=-7233.581300844267 pbc="F F F"
O	0.3214999	3.1250488	-0.4804998	0	0.0033471	-0.0125766	0.0020440
C	0.6542797	2.0253092	-0.2840699	0	-0.0072041	0.0079964	-0.0031437
C	1.0814596	0.8240697	-0.0921000	0	0.0074292	0.0035865	0.0014750
C	1.4678994	-0.5158898	-0.4254098	0	-0.0066723	-0.0045845	0.0056651
H	2.5101490	-0.7245897	-0.6470297	0	0.0045306	0.0000585	-0.0010765
H	0.7319297	-1.1936695	-0.8471897	0	-0.0029186	0.0000821	-0.0037339
O	1.2075495	-0.1099000	0.9262696	0	-0.0070630	-0.0023151	-0.0068253
