13
Properties=species:S:1:pos:R:3:molID:I:1:forces_dft:R:3 Nmols=1 Comp=VC(2) energy_dft=-6325.479405698279 pbc="F F F"
O	2.6739890	-0.1211499	1.1323996	0	-0.0010378	-0.0015777	-0.0050748
C	2.1618791	-0.5725198	-0.1057599	0	-0.0007332	0.0021265	0.0098169
C	0.6459297	-0.5991098	-0.0200100	0	0.0066814	0.0021713	-0.0039481
C	0.0376100	0.7615497	0.1309699	0	0.0018416	0.0057210	-0.0006518
C	-0.7577097	1.1327096	1.1204595	0	-0.0013123	-0.0019728	0.0023836
H	-1.1739595	2.1315291	1.1698495	0	-0.0028637	0.0034335	-0.0019997
H	-1.0171196	0.4494098	1.9221793	0	0.0021246	-0.0028591	0.0000179
H	0.2833599	1.4809294	-0.6483897	0	0.0005807	0.0015625	-0.0007915
H	0.3478898	-1.2394895	0.8140897	0	-0.0037314	-0.0032748	0.0009623
H	0.2696199	-1.0645096	-0.9378096	0	0.0031836	-0.0028627	0.0007405
H	2.5291790	-1.5808494	-0.3359399	0	0.0004504	-0.0047905	0.0021655
H	2.4732990	0.0921000	-0.9235997	0	-0.0012567	0.0011842	-0.0014286
H	3.6271286	-0.0541700	1.0694896	0	-0.0031013	-0.0020181	0.0015469
