3
Properties=species:S:1:pos:R:3:molID:I:1:forces_dft:R:3 Nmols=1 Comp=VC(2) energy_dft=-5132.429597801464 pbc="F F F"
O	-2.6261290	-0.4480298	-1.5865294	0	0.0025882	-0.0034339	-0.0037962
C	-1.8552193	-1.2768195	-1.3501695	0	0.0008168	-0.0014242	0.0000708
O	-1.0842895	-2.1055592	-1.1137796	0	-0.0034133	0.0048621	0.0037316
