4
Properties=species:S:1:pos:R:3:molID:I:1:forces_dft:R:3 Nmols=1 Comp=VC(2) energy_dft=-3115.404524023013 pbc="F F F"
C	2.0496592	0.4219398	-1.0844096	0	0.0042064	-0.0004886	-0.0114356
O	1.4834694	0.3314499	-2.1337791	0	0.0015090	-0.0001761	0.0060993
H	2.1286691	1.3843295	-0.5432898	0	-0.0036893	0.0028506	-0.0001115
H	2.5236190	-0.4520198	-0.5978398	0	-0.0031201	-0.0044692	0.0022184
