11
Properties=species:S:1:pos:R:3:molID:I:1:forces_dft:R:3 Nmols=1 Comp=VC(1) energy_dft=-6288.638138798307 pbc="F F F"
C	-1.2029995	1.5637694	-0.4320998	0	-0.0025229	-0.0020007	-0.0009484
C	-0.0371500	0.8954197	-1.0404596	0	0.0046850	-0.0014763	0.0036102
C	1.1447195	0.9479796	-1.5808894	0	-0.0013510	-0.0068840	-0.0040024
H	1.9824392	1.5417394	-1.9091992	0	0.0005766	-0.0003046	-0.0045759
C	0.5781498	-0.4018299	-1.3929494	0	0.0075340	0.0004813	-0.0010202
O	1.0606196	-1.2869895	-0.4072299	0	-0.0053220	0.0016620	0.0041494
H	1.4594594	-0.7644997	0.2927399	0	-0.0007979	0.0003475	0.0003165
H	0.2232299	-1.0042996	-2.2256591	0	-0.0007166	-0.0009000	-0.0002712
H	-1.0577496	2.6417690	-0.3601199	0	0.0008376	0.0048032	0.0020531
H	-2.0992592	1.3658994	-1.0239996	0	-0.0030377	0.0017383	-0.0034948
H	-1.3848494	1.1644195	0.5675498	0	-0.0022376	-0.0010452	0.0035558
