9
Properties=species:S:1:pos:R:3:molID:I:1:forces_dft:R:3 Nmols=1 Comp=VC(1) energy_dft=-7268.982238224543 pbc="F F F"
C	2.7289489	-0.0992199	-0.5592198	0	-0.0141524	-0.0008474	0.0028883
O	1.7136793	-1.0781496	-0.4205798	0	0.0062874	0.0044548	-0.0043849
C	0.5207398	-0.5607198	0.0254300	0	0.0093175	-0.0001431	-0.0003887
C	-0.5195398	-0.5072998	-0.7815297	0	-0.0078460	-0.0001489	-0.0054972
O	-1.4506794	-0.4821298	-1.4698394	0	-0.0035008	0.0006177	0.0106593
H	0.4086598	-0.2308199	1.0519196	0	-0.0014138	0.0011109	0.0014922
H	2.4488890	0.6556997	-1.3003295	0	0.0053951	0.0037245	-0.0023387
H	3.6252686	-0.6217997	-0.8899897	0	0.0033961	0.0015694	-0.0022957
H	2.9297788	0.3965098	0.3966999	0	0.0017136	0.0040358	0.0042569
