10
Properties=species:S:1:pos:R:3:molID:I:1:forces_dft:R:3 Nmols=1 Comp=VC(1) energy_dft=-5256.649326929976 pbc="F F F"
C	-0.7875697	1.8990792	0.6708097	0	-0.0047106	0.0015199	-0.0061220
C	-0.4241798	0.4483698	0.8803697	0	0.0107660	0.0015289	0.0039650
C	-1.4046894	-0.5736098	0.3563499	0	-0.0007179	0.0023199	0.0005986
H	-0.9703596	-1.5692994	0.4102498	0	0.0027705	-0.0021760	-0.0002613
H	-2.3153691	-0.5435698	0.9603496	0	-0.0024503	-0.0011372	0.0040667
H	-1.6936594	-0.3432499	-0.6712798	0	-0.0058938	0.0003512	-0.0023103
O	0.5958998	0.1235400	1.4337994	0	-0.0172582	-0.0020132	-0.0051741
H	-0.1152999	2.5386190	1.2381195	0	0.0033729	0.0006399	-0.0011478
H	-0.7025397	2.1395891	-0.3923099	0	-0.0047771	0.0003447	-0.0041439
H	-1.8233093	2.0882592	0.9603096	0	-0.0033895	-0.0021117	0.0016976
