4
Properties=species:S:1:pos:R:3:molID:I:1:forces_dft:R:3 Nmols=1 Comp=VC(1) energy_dft=-3115.404679850723 pbc="F F F"
C	-2.7495589	-0.2210299	0.4437298	0	0.0124840	-0.0026911	-0.0125809
O	-1.9958692	-0.4542398	-0.4548798	0	0.0030212	-0.0006117	0.0151780
H	-2.3973890	0.1815899	1.4128695	0	0.0024253	0.0055377	0.0025464
H	-3.8391785	-0.3950998	0.3540398	0	-0.0075526	-0.0071282	0.0001405
