7
Properties=species:S:1:pos:R:3:molID:I:1:forces_dft:R:3 Nmols=1 Comp=VC(1) energy_dft=-4186.434320248154 pbc="F F F"
C	-1.5550094	-0.5480298	-0.4363598	0	0.0060340	-0.0015146	-0.0011897
C	-0.6436897	-1.5787094	0.1582500	0	0.0059972	0.0042460	0.0071786
O	0.2516699	-1.3388395	0.9201396	0	-0.0092958	0.0018387	0.0001656
H	-0.8448797	-2.6259990	-0.1529999	0	0.0013017	-0.0034051	-0.0042733
H	-1.3000395	0.4466198	-0.0758099	0	0.0012418	0.0031989	0.0024827
H	-2.5910790	-0.7875597	-0.1832099	0	-0.0040216	-0.0011599	-0.0011967
H	-1.4788194	-0.5831498	-1.5264594	0	0.0007246	0.0039432	-0.0043032
