3
Properties=species:S:1:pos:R:3:molID:I:1:forces_dft:R:3 Nmols=1 Comp=VC(2) energy_dft=-5132.105035826168 pbc="F F F"
O	2.2697991	-0.6975697	-0.8419297	0	-0.0094546	-0.0091329	0.0037590
C	1.4590894	-1.5160594	-0.7427997	0	-0.0000134	0.0001405	-0.0000816
O	0.6483897	-2.3345591	-0.6436597	0	0.0094768	0.0090138	-0.0036771
