15
Properties=species:S:1:pos:R:3:molID:I:1:forces_dft:R:3 Nmols=1 Comp=VC(1) energy_dft=-5348.402083130914 pbc="F F F"
C	2.5599890	0.2632799	0.0165000	0	0.0018868	-0.0008235	0.0020259
C	1.2507795	-0.3708498	0.4659198	0	0.0004633	-0.0037163	-0.0003886
C	0.2671199	0.6495197	1.0410296	0	0.0016901	0.0037494	-0.0010589
C	-1.0017696	0.0216700	1.5280494	0	-0.0024621	0.0027687	-0.0099350
C	-2.2142491	0.2919499	1.0699796	0	0.0068957	-0.0028645	0.0039150
H	-2.3728391	1.0260396	0.2862899	0	-0.0037923	0.0011570	-0.0021448
H	-3.0937588	-0.2039599	1.4623594	0	-0.0020359	-0.0024958	-0.0001120
H	-0.8902997	-0.7237897	2.3137691	0	0.0038094	0.0007376	0.0015620
H	0.0369100	1.4080195	0.2864999	0	0.0024219	0.0015835	-0.0022448
H	0.7511797	1.1727095	1.8744493	0	-0.0004817	0.0025744	0.0031523
H	1.4526895	-1.1398695	1.2187095	0	0.0006396	-0.0003750	0.0029846
H	0.7766697	-0.8847297	-0.3756298	0	0.0001232	-0.0020315	-0.0038800
H	2.3871390	1.0157496	-0.7567897	0	-0.0024829	-0.0008441	0.0003671
H	3.0639988	0.7575597	0.8508297	0	0.0006830	0.0011722	0.0042060
H	3.2453787	-0.4816498	-0.3914098	0	0.0002408	-0.0028870	-0.0019777
