12
Properties=species:S:1:pos:R:3:molID:I:1:forces_dft:R:3 Nmols=1 Comp=VC(1) energy_dft=-4275.530447376173 pbc="F F F"
C	2.3839491	0.1332899	-0.3380699	0	0.0006047	0.0025101	-0.0020372
C	0.9396697	0.1270099	0.1605399	0	-0.0081084	-0.0009044	0.0016029
C	-0.0170900	-0.3926399	-0.8684097	0	0.0016176	-0.0036823	-0.0017768
C	-0.8005597	-1.4495794	-0.7202897	0	-0.0059465	0.0006177	-0.0047809
H	-0.8054897	-2.0251792	0.1999099	0	0.0007420	0.0007574	0.0008331
H	-1.4672594	-1.7774893	-1.5086094	0	0.0001399	-0.0003870	-0.0045618
H	-0.0419000	0.1530499	-1.8103693	0	0.0021730	-0.0000695	-0.0009470
H	0.8591997	-0.4739798	1.0702196	0	-0.0001035	-0.0040585	0.0008209
H	0.6510497	1.1482395	0.4319398	0	-0.0012705	0.0018851	-0.0007870
H	2.7142290	-0.8780496	-0.5830398	0	0.0023600	-0.0030080	-0.0019120
H	2.4854390	0.7426097	-1.2392195	0	-0.0018909	0.0030976	-0.0016327
H	3.0601588	0.5383398	0.4167098	0	-0.0014581	0.0037519	0.0044021
