9
Properties=species:S:1:pos:R:3:molID:I:1:forces_dft:R:3 Nmols=1 Comp=VC(1) energy_dft=-4680.675307800164 pbc="F F F"
C	-0.7238397	-0.9160996	-1.2653895	0	-0.0048605	0.0017395	0.0075179
H	-0.8881497	-1.7760893	-1.9039193	0	0.0048682	-0.0004310	-0.0038557
H	-0.7807597	0.0483300	-1.7605093	0	0.0025873	0.0004757	-0.0033071
N	-1.2939995	-1.0505896	0.1024499	0	0.0029968	-0.0082568	0.0025962
H	-1.6927193	-0.1965199	0.4725898	0	-0.0013576	0.0027390	-0.0007177
C	0.0852100	-1.0127196	-0.0698300	0	0.0065173	0.0031039	-0.0012599
C	1.2353495	-1.0116896	0.5664998	0	-0.0093900	0.0002492	-0.0045175
H	2.1652991	-0.9949296	0.0153700	0	0.0014726	0.0005060	0.0008803
H	1.2744395	-1.0374096	1.6480094	0	-0.0027128	0.0010509	0.0048038
