12
Properties=species:S:1:pos:R:3:molID:I:1:forces_dft:R:3 Nmols=1 Comp=VC(1) energy_dft=-4275.706879436008 pbc="F F F"
C	-1.1356996	-1.1960995	0.0448300	0	0.0000145	0.0054508	0.0121843
C	-0.4507198	-0.0309300	0.6981997	0	0.0022268	-0.0004373	-0.0054788
C	-0.9474396	1.3251495	0.2888399	0	0.0030392	-0.0042823	0.0069633
H	-0.8320797	1.4697694	-0.7893397	0	-0.0005289	0.0046525	-0.0036420
H	-0.4124398	2.1245991	0.8011597	0	0.0030213	0.0031348	0.0013277
H	-2.0140092	1.4290994	0.5085798	0	-0.0041416	0.0031557	0.0023102
C	0.5298298	-0.1891199	1.5783894	0	-0.0115680	-0.0052289	0.0011658
H	0.8797797	-1.1740296	1.8658393	0	0.0024473	-0.0012848	-0.0022186
H	1.0160496	0.6614797	2.0422592	0	0.0000574	0.0033024	-0.0018505
H	-1.0255596	-1.1489495	-1.0425296	0	-0.0023318	-0.0002478	-0.0059553
H	-2.2092592	-1.1801195	0.2542499	0	-0.0051042	0.0014805	-0.0008049
H	-0.7323297	-2.1475692	0.3907599	0	0.0053339	-0.0022561	0.0031430
