9
Properties=species:S:1:pos:R:3:molID:I:1:forces_dft:R:3 Nmols=1 Comp=VC(1) energy_dft=-3206.440306097969 pbc="F F F"
C	-1.7437893	0.4678998	-0.3601899	0	0.0052124	0.0006459	0.0003453
C	-1.4925494	-0.1749499	0.9665196	0	0.0071190	0.0017393	0.0031069
C	-0.9600496	-1.3742494	1.1423595	0	-0.0100732	-0.0053361	0.0016665
H	-0.6616897	-1.9909292	0.3004699	0	0.0008082	-0.0029162	-0.0002069
H	-0.8037997	-1.7856693	2.1321792	0	-0.0004740	-0.0006401	0.0029523
H	-1.7761893	0.4054299	1.8416993	0	-0.0007322	0.0012181	0.0005711
H	-1.2058995	1.4159394	-0.4415298	0	0.0013668	0.0013862	0.0041457
H	-2.8056289	0.6936297	-0.4890798	0	-0.0038190	0.0000412	-0.0020884
H	-1.4294594	-0.1776599	-1.1814195	0	-0.0002872	-0.0032686	-0.0019819
