4
Properties=species:S:1:pos:R:3:molID:I:1:forces_dft:R:3 Nmols=1 Comp=VC(2) energy_dft=-3116.136145098917 pbc="F F F"
C	-1.3524595	1.6296194	-0.0009700	0	0.0067049	0.0088927	0.0090363
O	-0.8754896	2.1221992	0.9786596	0	-0.0101094	-0.0123538	0.0120571
H	-2.2992191	1.0570096	0.0327700	0	-0.0023313	-0.0001861	0.0021574
H	-0.8726897	1.7190593	-0.9945496	0	0.0000851	-0.0033908	-0.0035088
