10
Properties=species:S:1:pos:R:3:molID:I:1:forces_dft:R:3 Nmols=1 Comp=VC(2) energy_dft=-5255.605376880206 pbc="F F F"
O	-1.7136693	0.4912698	-0.4738898	0	-0.0039749	0.0070875	0.0014784
C	-1.4486094	-0.7517097	0.1299499	0	0.0019342	0.0044677	-0.0097054
C	-0.1599199	-1.3930295	-0.2930299	0	0.0011044	0.0060016	-0.0016446
C	0.6464298	-0.9381396	-1.2382995	0	-0.0100949	-0.0008366	0.0031060
H	1.5661094	-1.4520394	-1.4873994	0	0.0031574	0.0042163	-0.0011000
H	0.4054599	-0.0476500	-1.8075493	0	-0.0019235	0.0040903	-0.0000104
H	0.0987999	-2.3007991	0.2471099	0	0.0039460	-0.0034095	-0.0032222
H	-1.4622494	-0.6697197	1.2261195	0	-0.0007920	-0.0025381	0.0041396
H	-2.2832791	-1.4049094	-0.1402199	0	0.0000105	-0.0048025	-0.0016222
H	-1.0107396	1.0991396	-0.2341699	0	0.0006090	0.0001328	0.0015217
