10
Properties=species:S:1:pos:R:3:molID:I:1:forces_dft:R:3 Nmols=1 Comp=VC(1) energy_dft=-5253.064599143958 pbc="F F F"
C	1.8055493	-0.0423500	-0.4480798	0	0.0004861	-0.0079263	0.0015913
O	0.6710697	0.5767998	0.1199300	0	-0.0065022	0.0022825	-0.0094862
C	0.0164800	-0.1527600	1.0511996	0	-0.0027570	0.0046365	-0.0017268
C	-1.1342396	0.2327799	1.5796794	0	0.0064383	-0.0049191	0.0085442
H	-1.6124294	1.1539896	1.2738095	0	0.0018727	0.0000016	0.0013426
H	-1.6078794	-0.3775599	2.3342391	0	-0.0008027	-0.0030802	0.0011229
H	0.5063898	-1.0782096	1.3495795	0	-0.0006404	-0.0032712	0.0016634
H	2.5406390	-0.3053399	0.3195099	0	0.0012707	-0.0047275	0.0029643
H	2.2492391	0.6788797	-1.1313696	0	0.0034669	0.0028371	-0.0013253
H	1.5286894	-0.9412596	-1.0081096	0	-0.0035251	-0.0010408	-0.0015086
