8
Properties=species:S:1:pos:R:3:molID:I:1:forces_dft:R:3 Nmols=1 Comp=VC(1) energy_dft=-3645.270491001225 pbc="F F F"
N	1.8734593	-0.3787499	0.3795698	0	0.0008600	-0.0093057	-0.0005526
C	1.0147596	-0.8042197	-0.6205897	0	0.0001432	-0.0010903	-0.0000150
C	-0.0951399	-1.5198294	-0.4602298	0	-0.0017503	0.0082046	-0.0065510
H	-0.6556197	-1.8546593	-1.3205795	0	0.0000277	-0.0042094	-0.0016369
H	-0.4597498	-1.8028993	0.5208998	0	-0.0016492	-0.0014659	0.0023053
H	1.3519394	-0.5460898	-1.6198894	0	0.0043259	-0.0030462	-0.0033157
H	2.3924591	0.4592998	0.1855199	0	0.0004589	0.0055563	-0.0003180
H	1.5006494	-0.3992898	1.3144095	0	-0.0045568	-0.0011097	0.0059621
