7
Properties=species:S:1:pos:R:3:molID:I:1:forces_dft:R:3 Nmols=1 Comp=VC(1) energy_dft=-4186.434565247708 pbc="F F F"
C	1.9028093	-0.1311500	-0.2721199	0	0.0004072	0.0009253	0.0046455
C	1.2215495	1.0178896	0.4079098	0	-0.0047412	0.0023267	0.0111942
O	0.9630196	1.0612296	1.5787394	0	0.0032474	-0.0007830	-0.0139357
H	0.9545296	1.8690592	-0.2541199	0	0.0033926	-0.0004325	-0.0051289
H	2.8206889	0.2227599	-0.7487797	0	0.0009352	0.0003074	-0.0023833
H	2.1304691	-0.9209396	0.4410598	0	0.0010447	-0.0008793	0.0028580
H	1.2591895	-0.5152698	-1.0678396	0	0.0006803	-0.0007409	-0.0028112
