13
Properties=species:S:1:pos:R:3:molID:I:1:forces_dft:R:3 Nmols=1 Comp=VC(1) energy_dft=-5311.430905038393 pbc="F F F"
C	-1.3373995	-0.2050899	1.2733995	0	0.0001011	-0.0013484	-0.0031844
H	-0.4210598	0.1199200	1.7492593	0	0.0013481	0.0026168	-0.0003636
H	-2.1224992	-0.5051498	1.9548892	0	-0.0016137	-0.0016674	0.0014915
C	-1.7174893	0.4650798	-0.0132700	0	0.0188382	0.0050206	0.0052102
H	-2.7680489	0.6225097	-0.2182899	0	-0.0046316	-0.0004088	-0.0016459
H	-1.0705396	1.2529695	-0.3752698	0	-0.0034670	0.0046586	-0.0006339
C	-1.2036595	-0.9398096	-0.0347300	0	-0.0079935	-0.0028307	0.0037099
C	0.1428500	-1.2817795	-0.5547098	0	-0.0040725	0.0065332	0.0032692
C	0.8800197	-0.5360398	-1.3640294	0	-0.0076302	-0.0012965	-0.0048243
H	1.8648593	-0.8563497	-1.6808394	0	0.0030915	-0.0009625	0.0002556
H	0.5266698	0.4161498	-1.7437493	0	-0.0019302	0.0012190	0.0006586
H	0.5387698	-2.2367991	-0.2157999	0	0.0023439	-0.0031547	-0.0016024
H	-1.9470893	-1.7131793	-0.1992299	0	0.0017465	-0.0003940	-0.0038734
