6
Properties=species:S:1:pos:R:3:molID:I:1:forces_dft:R:3 Nmols=1 Comp=VC(2) energy_dft=-2137.194981094075 pbc="F F F"
C	-1.3766695	-1.2964695	0.3314599	0	0.0040873	-0.0027023	0.0056222
C	-1.5858994	-0.1200299	0.8967896	0	-0.0035151	0.0014110	-0.0063987
H	-0.7986697	0.4044898	1.4262894	0	-0.0014679	0.0022378	0.0048955
H	-2.5528790	0.3681999	0.8541197	0	-0.0027421	0.0014295	-0.0028102
H	-2.1638091	-1.8210493	-0.1980799	0	0.0018842	-0.0019659	-0.0048200
H	-0.4096698	-1.7845593	0.3743299	0	0.0017404	-0.0004049	0.0035044
