4
Properties=species:S:1:pos:R:3:molID:I:1:forces_dft:R:3 Nmols=1 Comp=VC(1) energy_dft=-3115.403705449432 pbc="F F F"
C	-3.0300788	-0.2157899	-0.8659596	0	-0.0046950	-0.0009850	-0.0036335
O	-4.0877184	0.3420799	-0.8792196	0	0.0219072	0.0076102	0.0009865
H	-2.7617189	-0.9429597	-0.0757999	0	-0.0007030	0.0028284	0.0043623
H	-2.2628291	-0.0344900	-1.6429394	0	0.0006687	0.0025717	-0.0013061
