13
Properties=species:S:1:pos:R:3:molID:I:1:forces_dft:R:3 Nmols=1 Comp=VC(1) energy_dft=-6325.631299300609 pbc="F F F"
C	-1.7928293	-0.6612197	0.3149799	0	0.0119334	0.0122776	-0.0143804
C	-1.1995395	0.3531499	-0.6571197	0	0.0013473	0.0009781	0.0092390
O	-0.8352097	1.5461794	0.0058300	0	-0.0008843	-0.0126772	0.0010654
H	-0.1718799	1.3300295	0.6667397	0	0.0023389	-0.0025419	0.0038726
C	-0.0683300	-0.2498899	-1.4477194	0	-0.0082797	0.0075068	0.0002805
C	1.1306296	0.2884499	-1.5992394	0	-0.0025169	-0.0098176	-0.0003944
H	1.9005593	-0.2097299	-2.1748992	0	-0.0012443	-0.0025035	-0.0034396
H	1.3759995	1.2527995	-1.1695095	0	0.0026124	0.0049914	0.0019359
H	-0.2900899	-1.2074795	-1.9132192	0	-0.0051633	-0.0029377	-0.0026762
H	-1.9802892	0.6564397	-1.3629995	0	-0.0023657	-0.0030084	-0.0019307
H	-2.6294990	-0.2164199	0.8541297	0	-0.0024511	-0.0024876	0.0001503
H	-2.1498891	-1.5494494	-0.2099299	0	-0.0026702	-0.0028755	-0.0039008
H	-1.0385596	-0.9807496	1.0396696	0	0.0056865	0.0038870	0.0010671
