9
Properties=species:S:1:pos:R:3:molID:I:1:forces_dft:R:3 Nmols=1 Comp=VC(1) energy_dft=-7268.359231238928 pbc="F F F"
O	1.0412796	0.5494498	-1.1298596	0	0.0146530	-0.0074729	0.0007334
C	0.6282497	-0.5462098	-0.4745698	0	0.0043651	0.0029217	0.0044888
C	-0.4332099	-1.2713295	-0.8170097	0	0.0031362	0.0083252	-0.0123427
H	-0.6927797	-2.1402891	-0.2284299	0	-0.0007643	-0.0008943	-0.0003713
H	-1.0494296	-1.0175596	-1.6685393	0	-0.0025165	0.0020608	-0.0001827
C	1.4524094	-0.9161396	0.6966797	0	0.0112715	0.0079873	0.0016242
O	2.4153990	-0.2615599	1.0109596	0	-0.0123369	-0.0106381	-0.0030188
H	1.1399896	-1.8124793	1.2584495	0	-0.0021278	-0.0035527	-0.0022020
H	1.8281893	0.8706097	-0.6645097	0	-0.0001962	0.0042949	0.0000876
