6
Properties=species:S:1:pos:R:3:molID:I:1:forces_dft:R:3 Nmols=1 Comp=VC(1) energy_dft=-2137.195105189287 pbc="F F F"
C	-1.0821095	-1.2418795	-0.0711000	0	-0.0021314	-0.0010461	0.0019662
C	-1.5623494	-0.0175600	-0.2049899	0	0.0022505	0.0009563	-0.0021470
H	-1.9750792	0.5263198	0.6370297	0	0.0036905	0.0031201	0.0012508
H	-1.5631994	0.4918998	-1.1618695	0	0.0023987	-0.0006822	-0.0024838
H	-1.0812796	-1.7513193	0.8857896	0	-0.0024546	0.0007403	0.0024781
H	-0.6693797	-1.7857793	-0.9130996	0	-0.0037520	-0.0030857	-0.0010692
