8
Properties=species:S:1:pos:R:3:molID:I:1:forces_dft:R:3 Nmols=1 Comp=VC(1) energy_dft=-3645.271271460314 pbc="F F F"
N	1.6221394	-0.4647198	-0.0973399	0	0.0020595	-0.0035293	-0.0081263
C	0.3869798	-0.9306396	-0.5168898	0	-0.0001731	-0.0019947	0.0045262
C	-0.6805997	-1.1435495	0.2477199	0	0.0022661	0.0036861	-0.0062482
H	-1.5763994	-1.5735894	-0.1753499	0	-0.0012026	-0.0017596	-0.0006943
H	-0.6839097	-0.9120996	1.3070995	0	0.0007019	-0.0000028	0.0048097
H	0.3544999	-1.1807995	-1.5730494	0	-0.0017595	-0.0034002	-0.0052080
H	1.6389294	-0.0211000	0.8060997	0	-0.0019298	0.0026375	0.0037796
H	2.1601691	0.0323300	-0.7849497	0	0.0014093	0.0029714	-0.0011083
