4
Properties=species:S:1:pos:R:3:molID:I:1:forces_dft:R:3 Nmols=1 Comp=VC(1) energy_dft=-3116.136207879237 pbc="F F F"
C	1.3325995	1.8367793	1.0293496	0	-0.0113982	0.0041386	0.0001489
O	0.2041599	2.1960992	0.8635797	0	0.0198940	-0.0020482	0.0007828
H	1.7135093	0.8881497	0.6049197	0	-0.0052470	-0.0011963	-0.0048938
H	2.0565592	2.4336390	1.6166693	0	0.0052442	0.0001872	0.0016902
