13
Properties=species:S:1:pos:R:3:molID:I:1:forces_dft:R:3 Nmols=1 Comp=VC(1) energy_dft=-6325.432542556226 pbc="F F F"
C	1.6881393	-0.2774199	-0.0046900	0	0.0037633	0.0070365	-0.0072973
C	0.3585499	0.2782199	-0.4450098	0	0.0034203	0.0039097	0.0080556
C	-0.8976297	-0.5863398	-0.2559499	0	-0.0005966	0.0011283	-0.0058057
C	-1.4187994	0.6051798	0.5523898	0	0.0019162	-0.0032392	-0.0019796
O	-0.1541299	1.2749595	0.4621698	0	-0.0008680	-0.0005382	-0.0072217
H	2.4426690	0.5108698	0.0157600	0	0.0018665	0.0018532	-0.0015244
H	1.6123093	-0.7080797	0.9956296	0	0.0024202	0.0008781	0.0026710
H	2.0209692	-1.0542696	-0.6973797	0	-0.0015343	-0.0034373	0.0023653
H	0.4386798	0.6992397	-1.4547994	0	0.0022285	-0.0007427	-0.0037550
H	-1.4510694	-0.8447896	-1.1564996	0	0.0011732	-0.0013346	-0.0041236
H	-0.7225597	-1.4853194	0.3346698	0	-0.0016456	-0.0029441	0.0004368
H	-1.7027994	0.4105699	1.5893894	0	-0.0007093	0.0001337	0.0027304
H	-2.2143391	1.1771695	0.0643400	0	-0.0002207	0.0034831	-0.0031947
