13
Properties=species:S:1:pos:R:3:molID:I:1:forces_dft:R:3 Nmols=1 Comp=VC(1) energy_dft=-7794.600762472621 pbc="F F F"
C	-1.1548295	-0.8953196	-0.5614398	0	0.0026882	-0.0051513	0.0044958
N	-0.8922796	-0.9779196	0.8803597	0	0.0153045	0.0103383	-0.0067786
C	-0.0552100	-0.1452399	0.0550700	0	-0.0077330	0.0040290	0.0070529
C	0.1684600	1.3552594	0.1355100	0	0.0031903	-0.0015765	-0.0039714
O	1.5781194	1.1659195	-0.0473600	0	0.0043923	-0.0057530	0.0015358
C	1.4502594	-0.2681899	-0.0723800	0	0.0043989	0.0006238	0.0006990
H	-0.9511496	-1.8050993	-1.1145995	0	0.0011570	-0.0032986	0.0005639
H	-2.0194192	-0.3353099	-0.9031497	0	-0.0016738	-0.0015958	-0.0027988
H	-1.5570094	-0.4229599	1.4063694	0	-0.0037780	0.0006892	0.0018330
H	-0.0616600	1.8073293	1.1069695	0	-0.0025813	-0.0005580	0.0038657
H	-0.2737099	1.9566392	-0.6643298	0	0.0005095	0.0015951	-0.0007106
H	1.9385992	-0.7412597	0.7840197	0	-0.0006455	0.0024400	0.0042020
H	1.8298493	-0.6938497	-1.0050496	0	0.0014955	-0.0031213	-0.0010924
