12
Properties=species:S:1:pos:R:3:molID:I:1:forces_dft:R:3 Nmols=1 Comp=VC(1) energy_dft=-9810.360731331268 pbc="F F F"
N	0.4274298	1.2910895	1.0068996	0	-0.0008089	-0.0081144	0.0069469
C	0.1739600	0.2422699	0.1049200	0	0.0072292	0.0015301	-0.0004674
C	-1.1746495	0.0934700	-0.5921297	0	-0.0011079	0.0009962	0.0041412
C	-0.6503598	-1.0106196	0.2323899	0	0.0053756	-0.0017449	-0.0058549
O	0.3001599	-1.7642293	-0.5547598	0	0.0086087	0.0036656	0.0042373
C	1.1433096	-0.6715897	-0.6089998	0	0.0234473	-0.0017321	0.0028764
O	2.2469991	-0.6299498	-1.0321696	0	-0.0032315	-0.0037673	0.0004268
H	0.5967298	2.1661892	0.5323498	0	-0.0010990	0.0037126	-0.0048429
H	1.2055695	1.0909496	1.6183894	0	-0.0004068	0.0009924	-0.0012177
H	-1.9425492	0.7045597	-0.1327799	0	-0.0064916	0.0011425	0.0042586
H	-1.2354095	-0.0238800	-1.6669894	0	-0.0052327	-0.0003563	-0.0029519
H	-1.0911796	-1.4882594	1.0928696	0	-0.0035500	-0.0003301	0.0033707
