10
Properties=species:S:1:pos:R:3:molID:I:1:forces_dft:R:3 Nmols=1 Comp=VC(1) energy_dft=-6726.974838903490 pbc="F F F"
N	2.0479192	-0.4703398	0.1208500	0	-0.0063011	0.0015430	0.0060384
C	0.8653397	-0.0973699	0.2515499	0	0.0191737	0.0040806	-0.0082422
C	-0.4865298	-0.7326097	0.0452400	0	-0.0014276	0.0012871	-0.0007744
C	-1.0094096	0.6316197	0.5056698	0	0.0036191	0.0074437	0.0046989
O	0.3537499	1.1101496	0.6597697	0	-0.0071638	-0.0122438	-0.0078709
H	2.7029989	0.2684499	0.3654799	0	-0.0019535	-0.0020491	-0.0007750
H	-0.6915597	-1.5728994	0.7048497	0	-0.0005756	-0.0008133	0.0059473
H	-0.7001797	-1.0067196	-0.9855396	0	-0.0006897	-0.0024797	-0.0036615
H	-1.5367594	0.6498897	1.4589794	0	-0.0054652	-0.0004875	-0.0003046
H	-1.5455694	1.2198295	-0.2385599	0	-0.0071963	0.0028045	-0.0020586
