17
Properties=species:S:1:pos:R:3:molID:I:1:forces_dft:R:3 Nmols=1 Comp=VC(1) energy_dft=-8427.427011370281 pbc="F F F"
C	1.8821992	0.8574197	-0.1268500	0	0.0019773	0.0030599	0.0045415
C	1.1717995	-0.4536898	0.0893299	0	-0.0011087	-0.0070893	0.0014364
O	0.5467998	-0.5525598	1.3891695	0	-0.0085455	-0.0025490	0.0033175
C	-0.6960797	-0.9708796	0.8116597	0	0.0049893	0.0015061	-0.0076326
C	-1.6856194	0.1887199	0.6230898	0	0.0099559	-0.0049127	0.0071242
C	-1.1375896	0.4044798	-0.8131897	0	0.0028208	-0.0005656	0.0165005
C	-0.1549800	-0.7692097	-0.6199998	0	-0.0055924	0.0033736	-0.0033979
H	1.2096995	1.7039493	0.0160200	0	-0.0022961	-0.0009664	0.0023341
H	2.7028389	0.9566196	0.5855898	0	0.0011388	0.0003009	-0.0005954
H	2.2981891	0.9026296	-1.1361196	0	0.0061295	-0.0013505	-0.0029832
H	1.8812393	-1.2812595	-0.0333800	0	0.0000419	-0.0022578	-0.0007918
H	-1.0549996	-1.9138293	1.2268995	0	-0.0012845	-0.0003599	0.0043482
H	-1.5290694	1.0029696	1.3303395	0	-0.0000389	-0.0008290	0.0009940
H	-2.7334989	-0.1125400	0.6515098	0	-0.0042987	0.0008510	0.0026916
H	-1.8795193	0.2018199	-1.5848494	0	-0.0018155	-0.0001817	-0.0005616
H	-0.6922597	1.3769295	-1.0243796	0	-0.0045266	0.0038068	-0.0028189
H	-0.1291699	-1.5415594	-1.3848494	0	-0.0015971	-0.0015293	-0.0021600
