11
Properties=species:S:1:pos:R:3:molID:I:1:forces_dft:R:3 Nmols=1 Comp=VC(1) energy_dft=-6291.210467492819 pbc="F F F"
C	-1.1469696	-0.4808098	-0.1456199	0	-0.0024091	-0.0044679	-0.0083805
C	-0.0065900	-0.0695799	0.7491697	0	0.0089872	-0.0006996	-0.0011558
C	1.2890895	-0.1804099	-0.0316400	0	-0.0054332	-0.0065415	0.0006495
O	0.7515797	0.6082497	-1.1170396	0	0.0042590	0.0079425	0.0054500
C	-0.4496698	0.8101997	-0.3837198	0	-0.0023893	0.0028758	-0.0063799
H	-2.1274292	-0.4069499	0.3086999	0	-0.0023448	-0.0010968	0.0013756
H	-1.0203796	-1.2881595	-0.8587397	0	-0.0008067	-0.0007917	0.0030553
H	-0.1021900	0.0577400	1.8169093	0	0.0008498	0.0032972	0.0048799
H	1.6016494	-1.1771295	-0.3560399	0	0.0012638	-0.0036955	-0.0005297
H	2.1270892	0.3411999	0.4359998	0	0.0035122	0.0002536	-0.0016919
H	-0.9161696	1.7856693	-0.4179898	0	-0.0032174	0.0002726	-0.0027165
