14
Properties=species:S:1:pos:R:3:molID:I:1:forces_dft:R:3 Nmols=1 Comp=VC(1) energy_dft=-7357.867055571322 pbc="F F F"
C	1.6124994	-0.2857299	0.4616998	0	0.0026790	0.0021414	-0.0010326
C	0.6568797	0.5604898	-0.3359299	0	-0.0108413	-0.0060618	0.0068484
C	-0.6392897	0.0643500	-0.9322296	0	0.0003429	0.0053413	-0.0077352
C	-1.3505595	-0.8363097	0.0600400	0	-0.0016031	-0.0048175	-0.0062256
O	-1.2251395	0.1458899	1.1102795	0	-0.0048820	0.0060364	-0.0074727
C	-0.6423198	1.0641996	0.1936499	0	-0.0062191	-0.0089617	0.0101645
H	1.0846796	-0.8857496	1.2029596	0	0.0020021	-0.0005722	0.0028153
H	2.3231591	0.3443799	0.9997096	0	0.0011254	-0.0013987	-0.0001090
H	2.1792392	-0.9571996	-0.1864899	0	-0.0000393	-0.0009688	-0.0011856
H	1.1285195	1.2869295	-0.9919596	0	0.0008139	0.0009233	0.0005878
H	-0.8979597	0.1825999	-1.9740992	0	-0.0030732	0.0002635	-0.0025802
H	-0.8807997	-1.7893693	0.3199599	0	-0.0016412	-0.0008414	-0.0043215
H	-2.4035191	-0.9961096	-0.1818399	0	-0.0027732	0.0009982	-0.0029484
H	-0.9453896	2.1016092	0.2542699	0	-0.0014220	0.0043873	0.0054611
