12
Properties=species:S:1:pos:R:3:molID:I:1:forces_dft:R:3 Nmols=1 Comp=VC(1) energy_dft=-8338.338896658934 pbc="F F F"
O	-0.6405598	1.0241696	-1.5237094	0	0.0005861	0.0083624	-0.0001793
C	-0.0917300	1.1206596	-0.2541699	0	-0.0079715	-0.0114447	0.0007346
C	-0.3609399	0.1215399	0.8406597	0	-0.0011402	0.0075184	-0.0090994
C	-0.3854698	-1.2618795	0.2241899	0	-0.0085197	0.0079655	-0.0094166
O	0.8744797	-1.0319196	-0.4551898	0	0.0177585	-0.0122684	0.0010070
C	1.0071296	0.2303399	0.1912399	0	0.0022163	0.0036814	0.0054137
H	-0.1904299	0.3014299	-1.9739392	0	-0.0030148	0.0016496	0.0004822
H	-0.0290500	2.1455692	0.0938100	0	-0.0012400	0.0040429	0.0060249
H	-0.7006297	0.3864599	1.8309493	0	-0.0031814	-0.0035274	0.0037703
H	-0.2723499	-2.0691792	0.9491196	0	0.0022465	-0.0022220	-0.0011926
H	-1.1971096	-1.4867794	-0.4723098	0	0.0014662	-0.0006803	-0.0035360
H	1.9866692	0.5195898	0.5493498	0	0.0020563	-0.0009177	0.0056642
