14
Properties=species:S:1:pos:R:3:molID:I:1:forces_dft:R:3 Nmols=1 Comp=VC(1) energy_dft=-8832.125262021851 pbc="F F F"
N	2.5801890	0.2188599	0.4521798	0	-0.0058866	0.0004521	-0.0010915
C	1.4598994	-0.0614400	-0.0210400	0	0.0194155	-0.0001943	0.0044638
O	0.9033296	-1.2850495	-0.3198199	0	-0.0026083	0.0084450	0.0032744
C	-0.3065399	-0.6586197	-0.8244097	0	0.0020582	0.0099437	0.0066988
C	-1.3896794	-0.5342898	0.2522199	0	0.0079314	-0.0060301	0.0057260
C	-0.8164797	0.8507297	0.6547497	0	0.0015679	-0.0085396	-0.0018344
C	0.2578599	0.7293697	-0.4570798	0	-0.0017283	0.0040475	0.0049497
H	3.1299988	-0.6182698	0.6315797	0	-0.0000552	-0.0050462	-0.0051780
H	-0.5483798	-1.0076096	-1.8255093	0	-0.0043652	-0.0027457	-0.0040316
H	-1.3577695	-1.3203295	1.0053896	0	-0.0069891	-0.0044236	0.0007926
H	-2.3965691	-0.4803498	-0.1617999	0	-0.0067973	-0.0028683	-0.0003557
H	-0.4213998	0.9445896	1.6650994	0	-0.0063682	0.0012939	0.0033806
H	-1.5127394	1.6678093	0.4744498	0	-0.0063021	-0.0006301	0.0018892
H	0.4182898	1.5546094	-1.1434196	0	0.0003644	0.0003502	-0.0008671
