12
Properties=species:S:1:pos:R:3:molID:I:1:forces_dft:R:3 Nmols=1 Comp=VC(1) energy_dft=-8232.882037390324 pbc="F F F"
N	1.6134193	-0.5061798	0.3235299	0	-0.0020542	0.0006235	-0.0121130
C	0.5004298	0.0314100	-0.4068899	0	0.0065137	0.0006283	0.0045170
C	-0.6310898	-0.9303696	-0.8003597	0	-0.0027675	0.0070501	0.0071053
O	-1.6071594	-0.0463200	-0.1839899	0	-0.0000397	-0.0010826	0.0053627
C	-0.6230298	0.7773697	0.2997699	0	0.0031869	0.0136736	0.0026474
N	-0.6836697	1.7498293	1.0791795	0	0.0026750	0.0016929	-0.0099239
H	2.3093191	0.2065199	0.4920398	0	0.0003217	-0.0005756	0.0018667
H	1.3218195	-0.8611996	1.2251495	0	-0.0017225	-0.0028208	0.0032493
H	0.8694797	0.6013098	-1.2602695	0	-0.0010399	-0.0020216	-0.0036161
H	-0.8324597	-1.0662396	-1.8620692	0	-0.0000057	-0.0046040	-0.0054289
H	-0.5997198	-1.8925593	-0.2871099	0	-0.0007656	-0.0052496	0.0018089
H	-1.6373494	1.9364292	1.3810295	0	-0.0073626	-0.0016004	0.0036925
