17
Properties=species:S:1:pos:R:3:molID:I:1:forces_dft:R:3 Nmols=1 Comp=VC(1) energy_dft=-9442.064322505450 pbc="F F F"
C	2.0500892	1.1007295	-0.4404698	0	-0.0052918	0.0031525	-0.0007787
O	0.6559797	0.9428896	-0.3630699	0	0.0016761	-0.0068175	0.0018865
C	0.2550799	-0.3887098	-0.4669598	0	0.0042460	0.0085632	0.0015922
C	0.3909398	-1.2758495	0.7791997	0	-0.0018781	0.0037804	-0.0068573
O	-1.0171196	-1.5385394	0.7868597	0	0.0112193	-0.0003732	-0.0104329
C	-1.2561195	-0.6112798	-0.2927099	0	-0.0065350	-0.0009998	0.0069352
C	-2.0851092	0.5758098	0.1292499	0	0.0058748	-0.0045879	0.0037740
H	2.5625990	0.5856298	0.3816899	0	0.0003717	0.0010360	0.0015869
H	2.4424390	0.7166297	-1.3910594	0	0.0001713	0.0007563	-0.0018028
H	2.2615191	2.1666491	-0.3723498	0	-0.0004001	0.0058203	0.0006156
H	0.6662697	-0.8398997	-1.3779894	0	-0.0004495	-0.0005659	-0.0010732
H	0.7122997	-0.7269497	1.6711193	0	0.0043113	0.0002244	0.0012024
H	0.9781496	-2.1920592	0.6781597	0	0.0017165	-0.0023322	-0.0015975
H	-1.7251193	-1.1276296	-1.1362295	0	0.0037654	-0.0002918	-0.0033653
H	-2.1988091	1.2762495	-0.6999297	0	-0.0018163	-0.0007774	0.0001965
H	-3.0748688	0.2350499	0.4372798	0	-0.0031371	-0.0033015	0.0007616
H	-1.6182194	1.1012696	0.9617096	0	0.0016485	0.0012473	0.0029270
