13
Properties=species:S:1:pos:R:3:molID:I:1:forces_dft:R:3 Nmols=1 Comp=VC(1) energy_dft=-8363.302152934641 pbc="F F F"
C	2.6541689	0.6500398	0.2079199	0	-0.0192480	-0.0054420	-0.0073545
C	1.4977994	0.3687298	0.0643600	0	0.0142469	0.0059079	0.0131447
C	0.1277099	0.0193600	-0.1201600	0	0.0046871	-0.0011993	-0.0002240
C	-0.9942796	1.0227196	-0.2853899	0	0.0003606	-0.0070308	-0.0017184
C	-1.0524696	0.0473100	0.8282297	0	0.0041435	0.0003752	-0.0035570
O	-1.5392494	-1.2059895	0.3837799	0	0.0095650	0.0029074	0.0078752
C	-0.4026598	-1.3590395	-0.4921398	0	-0.0094548	0.0014051	0.0065330
H	3.6801785	0.9003696	0.3389299	0	0.0045215	0.0024792	-0.0014919
H	-1.6835393	0.9221397	-1.1163496	0	-0.0000303	-0.0010426	-0.0011891
H	-0.7226197	2.0344492	-0.0127200	0	0.0035781	0.0035257	0.0013545
H	-1.1161996	0.2869999	1.8811893	0	-0.0009989	-0.0005101	0.0044203
H	0.2428499	-2.1670791	-0.1439400	0	-0.0011646	-0.0028703	0.0074782
H	-0.6916897	-1.5200194	-1.5337094	0	-0.0035298	-0.0022288	-0.0029632
