10
Properties=species:S:1:pos:R:3:molID:I:1:forces_dft:R:3 Nmols=1 Comp=VC(1) energy_dft=-9315.604783781022 pbc="F F F"
O	-1.2861295	-0.9740696	0.4611498	0	-0.0076654	0.0047373	-0.0073838
C	-0.3692399	-0.2748999	-0.3212699	0	-0.0073406	0.0010714	0.0007572
C	-0.0986400	1.1539996	0.1406099	0	0.0199972	-0.0087064	0.0033085
O	1.3172295	0.8460397	0.3012099	0	-0.0055876	-0.0047756	-0.0018406
C	1.1192096	-0.4650798	0.0015300	0	0.0120376	0.0124159	0.0057588
O	1.8981793	-1.3556094	0.0333200	0	-0.0169669	-0.0172678	-0.0037222
H	-1.2112095	-1.9115493	0.2672399	0	-0.0046349	-0.0041701	-0.0018947
H	-0.5709298	-0.3638798	-1.3940894	0	-0.0021178	-0.0014631	-0.0045269
H	-0.5545998	1.3968694	1.0988396	0	-0.0017655	-0.0004461	0.0029462
H	-0.2438699	1.9481793	-0.5885498	0	-0.0027687	-0.0016915	0.0001216
