12
Properties=species:S:1:pos:R:3:molID:I:1:forces_dft:R:3 Nmols=1 Comp=VC(1) energy_dft=-8338.100036459031 pbc="F F F"
C	-1.5229994	-0.1189699	0.3210599	0	0.0049873	0.0073841	-0.0073029
C	-0.2702699	-0.1649599	-0.5105098	0	-0.0075910	-0.0041951	0.0122634
C	0.8867996	0.7666997	-0.1362600	0	0.0051857	-0.0056908	0.0009936
C	1.6180194	-0.5302598	0.1598299	0	0.0257941	-0.0042326	0.0034879
O	2.6883090	-0.8684397	0.5366498	0	-0.0017854	0.0103098	-0.0050214
O	0.5641198	-1.3228495	-0.1773899	0	-0.0123285	0.0099672	-0.0013196
H	-1.2818795	-0.1137100	1.3856294	0	-0.0067151	0.0032080	0.0035115
H	-2.1533692	-0.9843396	0.1138599	0	-0.0080095	0.0003851	0.0007557
H	-2.0925492	0.7829597	0.0878899	0	-0.0038400	0.0032467	-0.0021636
H	-0.4929298	-0.1908999	-1.5783594	0	-0.0004091	-0.0002484	-0.0045867
H	1.3286195	1.3498895	-0.9413096	0	-0.0036691	0.0015232	-0.0007838
H	0.7281197	1.3948795	0.7389197	0	0.0021754	0.0019623	0.0011114
