16
Properties=species:S:1:pos:R:3:molID:I:1:forces_dft:R:3 Nmols=1 Comp=VC(1) energy_dft=-7391.599827523240 pbc="F F F"
C	-1.1855095	-1.1724495	-0.1725000	0	-0.0027924	-0.0021283	0.0005525
C	-0.2514099	0.0145800	-0.0649100	0	0.0036672	-0.0024209	-0.0010610
C	-1.0028096	1.3221395	0.0837000	0	0.0035668	-0.0014687	-0.0045768
C	0.9466796	-0.1631999	0.8907197	0	0.0033101	-0.0084159	0.0008900
C	1.8004993	-0.0431600	-0.3732499	0	-0.0024918	0.0020086	0.0005723
O	0.6414797	0.0672300	-1.2074395	0	0.0012889	0.0093274	-0.0050953
H	-1.8451893	-1.0563396	-1.0348196	0	-0.0023877	0.0008208	-0.0027937
H	-1.8019893	-1.2588295	0.7254397	0	-0.0021923	-0.0020409	0.0018652
H	-0.6193498	-2.0966292	-0.2969199	0	0.0003216	-0.0011021	0.0034953
H	-1.6671493	1.4757994	-0.7689797	0	-0.0034924	0.0010075	0.0006093
H	-0.3082399	2.1623291	0.1312300	0	0.0001927	0.0017257	0.0020419
H	-1.6052994	1.3178595	0.9953096	0	0.0013271	-0.0020218	0.0039143
H	0.9888796	-1.1309096	1.3885294	0	0.0019943	0.0006190	0.0016906
H	1.0762296	0.6284098	1.6272294	0	0.0031665	0.0008579	-0.0001650
H	2.4046990	-0.9176296	-0.6295098	0	0.0052169	-0.0007634	-0.0029261
H	2.4284990	0.8508097	-0.4315798	0	0.0003881	0.0030091	0.0023893
