14
Properties=species:S:1:pos:R:3:molID:I:1:forces_dft:R:3 Nmols=1 Comp=VC(1) energy_dft=-8372.557327914816 pbc="F F F"
C	1.5322394	0.6324097	0.0718500	0	0.0033614	-0.0047607	0.0014063
C	0.6243097	-0.5716598	0.0014600	0	0.0008394	-0.0009584	0.0086808
O	-0.0041900	-0.8665997	1.2648895	0	-0.0085963	0.0070922	-0.0068575
C	-1.3005195	-0.5040298	0.7730197	0	0.0006983	-0.0058884	0.0017156
C	-0.7614197	-0.3703899	-0.6558297	0	-0.0028693	-0.0017764	-0.0024667
O	-1.0257596	0.7925797	-1.3825695	0	0.0112332	-0.0055067	0.0015809
H	1.0154396	1.5023994	0.4854098	0	-0.0015988	0.0031483	-0.0057538
H	2.3804691	0.4182299	0.7229397	0	-0.0004814	-0.0009985	0.0062699
H	1.9097093	0.8877997	-0.9202497	0	0.0015040	-0.0003635	-0.0024297
H	1.1754595	-1.4431394	-0.3647098	0	-0.0014436	-0.0017483	-0.0011118
H	-1.6551893	0.4430798	1.1987295	0	-0.0024243	0.0029694	0.0028487
H	-2.0466592	-1.2800795	0.9577096	0	-0.0003867	-0.0003162	0.0038139
H	-1.0437396	-1.1982595	-1.3039395	0	0.0018131	0.0015986	-0.0042817
H	-0.8001597	1.5576594	-0.8486897	0	0.0029109	-0.0001133	0.0048167
