17
Properties=species:S:1:pos:R:3:molID:I:1:forces_dft:R:3 Nmols=1 Comp=VC(1) energy_dft=-8431.420606958965 pbc="F F F"
C	-1.7654893	-0.1146400	1.3255495	0	-0.0001092	0.0028596	-0.0078273
C	-1.6571594	0.6924097	0.0637300	0	0.0038594	-0.0039340	0.0066383
C	-0.9817396	-0.6397998	0.1638899	0	-0.0004732	0.0015872	0.0081902
C	0.5147498	-0.7349197	0.2487199	0	0.0036934	0.0035498	-0.0064413
C	1.3307995	-0.3334999	-0.9921796	0	-0.0053483	0.0055638	0.0092300
C	1.9695592	0.6996497	-0.0607400	0	-0.0029560	-0.0070130	0.0043814
O	1.1073395	0.3241099	1.0235096	0	0.0053117	-0.0110160	0.0133351
H	-1.2015995	0.2381599	2.1790191	0	-0.0027191	0.0001811	0.0028249
H	-2.7119189	-0.5831298	1.5608994	0	-0.0039435	0.0038256	0.0018949
H	-2.5289990	0.7770497	-0.5713698	0	-0.0010644	0.0023843	-0.0008909
H	-1.0314796	1.5752494	0.1024000	0	-0.0003035	0.0047063	-0.0008935
H	-1.4290394	-1.4556594	-0.3950998	0	0.0002040	0.0018875	-0.0026971
H	0.7987097	-1.7094094	0.6635798	0	0.0017493	-0.0016953	-0.0000649
H	1.9983992	-1.0939296	-1.3919895	0	-0.0011639	-0.0020894	0.0001955
H	0.7281397	0.0881500	-1.7951593	0	0.0003970	0.0026199	-0.0013285
H	3.0205988	0.5205498	0.1837299	0	0.0033265	-0.0058346	0.0033045
H	1.8391093	1.7496493	-0.3357898	0	0.0003081	0.0030233	-0.0005286
