9
Properties=species:S:1:pos:R:3:molID:I:1:forces_dft:R:3 Nmols=1 Comp=VC(1) energy_dft=-7269.558418255191 pbc="F F F"
O	0.1183400	2.0042192	0.3747699	0	-0.0019952	-0.0147984	-0.0020049
C	0.0495300	0.8390797	0.1570799	0	-0.0024066	0.0165521	0.0069938
C	1.0301196	-0.3218599	0.0437300	0	-0.0020338	0.0001541	-0.0011321
O	-0.0710800	-1.2029995	-0.2229499	0	-0.0000839	-0.0091038	0.0036840
C	-1.0589596	-0.1651800	-0.1341100	0	0.0020695	0.0046269	-0.0013628
H	1.5635794	-0.5713998	0.9654096	0	-0.0007995	-0.0036117	0.0034898
H	1.7348493	-0.2538099	-0.7899897	0	0.0014436	0.0005585	-0.0007167
H	-1.5946694	-0.0056600	-1.0743496	0	-0.0029628	0.0000713	-0.0040571
H	-1.7717193	-0.3223999	0.6804098	0	-0.0014621	-0.0018817	0.0008060
