12
Properties=species:S:1:pos:R:3:molID:I:1:forces_dft:R:3 Nmols=1 Comp=VC(1) energy_dft=-8340.613780799740 pbc="F F F"
C	1.4126294	-0.2941999	0.0684200	0	-0.0071150	0.0009392	0.0052362
C	-0.0701700	-0.2791999	0.3818598	0	-0.0083514	-0.0079613	0.0096731
C	-0.8485697	1.0348896	0.2541699	0	0.0006560	-0.0098366	-0.0160880
O	-1.6774193	0.4581198	-0.7933597	0	-0.0066491	-0.0091518	-0.0005359
C	-0.9981196	-0.7219097	-0.7421897	0	0.0085599	0.0276142	0.0050848
O	-1.1621195	-1.6834694	-1.4134594	0	0.0053639	0.0116934	-0.0041704
H	1.9835792	0.1746900	0.8711196	0	0.0016473	-0.0019520	0.0001257
H	1.7640893	-1.3201295	-0.0457200	0	0.0029745	-0.0062231	0.0018203
H	1.6240493	0.2389499	-0.8604097	0	0.0009550	-0.0022959	-0.0041333
H	-0.2881199	-0.8206697	1.3036295	0	-0.0039888	-0.0003671	0.0030284
H	-0.2823499	1.8828093	-0.1312600	0	-0.0006054	-0.0015262	-0.0026095
H	-1.4574794	1.3301295	1.1071996	0	-0.0027066	-0.0033888	-0.0018169
