16
Properties=species:S:1:pos:R:3:molID:I:1:forces_dft:R:3 Nmols=1 Comp=VC(1) energy_dft=-7395.369802907453 pbc="F F F"
C	-1.4713694	0.6288198	-0.2816299	0	-0.0026611	-0.0046503	-0.0051905
C	-0.6190898	-0.1893899	0.6681097	0	-0.0084898	-0.0029075	-0.0004197
C	-0.3889599	-1.6501994	0.2576499	0	0.0064949	0.0005567	-0.0040905
O	0.9882696	-1.3982895	-0.0493800	0	-0.0050392	0.0073042	0.0077623
C	0.9174796	-0.0816599	0.5297298	0	-0.0052265	-0.0038545	0.0049963
C	1.5416194	0.9750496	-0.3448998	0	-0.0059389	-0.0006438	-0.0020973
H	-1.3838194	1.6985393	-0.0791400	0	0.0012404	0.0021337	-0.0005718
H	-2.5238990	0.3563599	-0.1776000	0	-0.0024467	-0.0004140	-0.0006471
H	-1.1885595	0.4577298	-1.3223395	0	-0.0029284	-0.0012602	-0.0033744
H	-0.9692296	-0.0609100	1.6930693	0	-0.0013550	-0.0014268	0.0025436
H	-0.9438096	-1.9973292	-0.6192598	0	0.0024461	-0.0024472	-0.0018001
H	-0.4979398	-2.3819891	1.0648596	0	-0.0018284	0.0001979	0.0022422
H	1.4100094	-0.0832300	1.5105794	0	0.0019183	0.0029396	-0.0013155
H	2.6036090	0.7613497	-0.4778098	0	0.0025758	0.0010012	-0.0009367
H	1.4496094	1.9597392	0.1195300	0	0.0029800	0.0037444	0.0003140
H	1.0760696	1.0053896	-1.3302295	0	-0.0003417	-0.0041124	-0.0017113
