15
Properties=species:S:1:pos:R:3:molID:I:1:forces_dft:R:3 Nmols=1 Comp=VC(1) energy_dft=-9302.220885843539 pbc="F F F"
C	1.7844993	0.1152699	0.4387998	0	-0.0048126	-0.0096100	-0.0055115
C	0.7826297	-0.3769799	-0.5683698	0	-0.0048300	-0.0033913	0.0139176
O	0.0840800	-1.5772394	-0.1059300	0	0.0040487	0.0068185	-0.0051507
C	-1.1071396	-0.9104797	-0.0169600	0	0.0232475	0.0036637	-0.0078133
N	-2.2049491	-1.2579795	0.4671498	0	0.0115973	0.0201987	-0.0054361
C	-0.5741498	0.3627599	-0.6468298	0	0.0006075	-0.0064947	-0.0027319
N	-0.7190097	1.6354494	0.0012100	0	0.0043565	0.0093195	-0.0041894
H	1.3230795	0.2543899	1.4180794	0	-0.0080932	-0.0040573	0.0006070
H	2.1958391	1.0712596	0.1123899	0	-0.0007320	-0.0016693	-0.0018577
H	2.5981590	-0.6027197	0.5459598	0	-0.0046432	-0.0064703	0.0012128
H	1.2474495	-0.5798798	-1.5346194	0	-0.0049429	-0.0031447	-0.0034388
H	-2.1706491	-2.2033291	0.8421996	0	-0.0016247	-0.0070132	0.0015777
H	-0.9123196	0.4471198	-1.6800393	0	-0.0010922	0.0002285	-0.0013094
H	-1.5787894	2.0832792	-0.2803099	0	-0.0082770	-0.0000691	0.0034470
H	-0.7487497	1.5390894	1.0072696	0	-0.0047162	-0.0036846	0.0089278
