9
Properties=species:S:1:pos:R:3:molID:I:1:forces_dft:R:3 Nmols=1 Comp=VC(1) energy_dft=-7270.648381885202 pbc="F F F"
O	2.1462191	-0.4705498	-0.8193497	0	-0.0155401	-0.0013315	0.0060567
C	1.0393896	-0.3533398	-0.4194098	0	0.0178867	-0.0085649	0.0007110
C	0.1312600	0.7579897	0.0836900	0	0.0029367	0.0057210	0.0047487
C	-0.8794097	-0.3774598	0.2390599	0	0.0072513	-0.0043529	-0.0115627
O	0.0991999	-1.3292995	-0.2642699	0	-0.0048022	0.0129977	0.0123078
H	-0.0959399	1.5134794	-0.6652897	0	0.0005998	-0.0009089	-0.0015717
H	0.4797298	1.2303795	0.9995196	0	0.0012632	0.0028620	0.0017455
H	-1.7514193	-0.3421699	-0.4120698	0	-0.0074614	0.0011951	-0.0030405
H	-1.1690295	-0.6290197	1.2581095	0	-0.0062387	0.0002562	0.0030472
