11
Properties=species:S:1:pos:R:3:molID:I:1:forces_dft:R:3 Nmols=1 Comp=VC(1) energy_dft=-8776.238915556021 pbc="F F F"
O	0.2785399	1.2501395	1.3447995	0	0.0017402	-0.0098791	0.0150435
C	0.4607098	0.5854198	0.1302299	0	0.0014225	0.0088446	-0.0001877
C	1.0237296	-0.8323697	0.2532199	0	-0.0114847	0.0042848	-0.0080696
O	-0.1667199	-1.3674295	-0.3973098	0	-0.0030384	0.0049776	0.0101709
C	-0.7472497	-0.1311100	-0.4359198	0	0.0150478	0.0018031	0.0065396
N	-1.8883592	0.2404799	-0.7751097	0	-0.0030305	-0.0000538	0.0047418
H	-0.4774398	1.8362993	1.2533595	0	-0.0026501	-0.0006477	-0.0014013
H	0.9761696	1.2059095	-0.6098398	0	0.0005754	0.0006313	-0.0015043
H	1.9188492	-1.0660296	-0.3204299	0	-0.0010267	-0.0005691	-0.0041661
H	1.0994996	-1.1853696	1.2806795	0	-0.0059028	-0.0012228	0.0016823
H	-2.4777390	-0.5359198	-1.0655596	0	-0.0016765	-0.0026033	-0.0001708
