14
Properties=species:S:1:pos:R:3:molID:I:1:forces_dft:R:3 Nmols=1 Comp=VC(1) energy_dft=-7357.991307725218 pbc="F F F"
C	-1.1050396	0.8596797	-0.5326198	0	0.0034501	-0.0022703	-0.0130827
C	-1.4059794	-0.2374199	0.4551198	0	0.0060373	-0.0070343	0.0005216
C	-0.0114100	0.0043600	-0.0006400	0	-0.0014552	0.0082382	0.0038605
C	0.9215396	-0.9308797	-0.7475897	0	0.0056831	-0.0018856	0.0031850
O	2.0278592	-0.5044898	0.0641600	0	-0.0042178	-0.0001044	-0.0021077
C	1.2052695	0.4044998	0.8134697	0	0.0012267	-0.0026197	-0.0086771
H	-1.4073695	0.7139297	-1.5625094	0	-0.0015712	-0.0012739	-0.0021999
H	-1.1614695	1.8848293	-0.1873699	0	-0.0009108	0.0039408	-0.0031159
H	-1.6666394	0.0457600	1.4676094	0	-0.0002056	0.0018288	0.0023259
H	-1.9096492	-1.1245595	0.0912000	0	0.0021554	-0.0007527	0.0009575
H	0.7193297	-2.0002192	-0.6285798	0	-0.0013260	-0.0034338	-0.0017352
H	1.0822696	-0.7025797	-1.8061193	0	0.0031568	0.0013610	-0.0033613
H	1.1756395	0.1453299	1.8767192	0	-0.0033800	0.0065476	0.0062750
H	1.5356494	1.4417595	0.6971497	0	-0.0010809	0.0052277	-0.0084033
