11
Properties=species:S:1:pos:R:3:molID:I:1:forces_dft:R:3 Nmols=1 Comp=VC(1) energy_dft=-8774.629168431107 pbc="F F F"
N	1.5041294	-0.4330298	0.1696999	0	-0.0024515	0.0009971	-0.0018210
C	0.2275499	-0.1493799	-0.4174999	0	0.0090973	-0.0051795	0.0080945
C	-1.0289296	-0.6896697	0.2759299	0	-0.0016728	0.0107769	-0.0070769
O	-1.5974994	0.6491497	0.3161799	0	-0.0080950	-0.0021199	-0.0086116
C	-0.4653498	1.2067895	-0.2010999	0	0.0006592	0.0281869	0.0041554
O	-0.2200899	2.3561191	-0.3466299	0	-0.0014488	-0.0103155	-0.0009940
H	1.5933594	-0.0305900	1.0931396	0	-0.0038323	0.0010627	0.0056176
H	2.2584391	-0.0769900	-0.3991098	0	0.0000425	-0.0028216	-0.0015972
H	0.2514599	-0.3964398	-1.4797094	0	-0.0014506	0.0005696	-0.0042901
H	-1.6624793	-1.3664895	-0.2945499	0	-0.0014508	-0.0103390	0.0013353
H	-0.8605897	-1.0694696	1.2836495	0	0.0013965	-0.0040610	0.0049123
