14
Properties=species:S:1:pos:R:3:molID:I:1:forces_dft:R:3 Nmols=1 Comp=VC(1) energy_dft=-8369.218450420234 pbc="F F F"
O	-1.8820393	0.5671698	-0.6195997	0	0.0012521	-0.0068762	-0.0051151
C	-1.4977994	-0.6014098	0.0656900	0	0.0004706	0.0010200	0.0025137
C	-0.0296700	-0.5922898	0.4256498	0	0.0003240	0.0050988	0.0051482
C	0.9889096	-0.2625399	-0.6737097	0	0.0018369	-0.0033032	-0.0038905
C	1.3839195	0.9012897	0.2381599	0	-0.0051921	-0.0007918	0.0010863
O	0.3116799	0.6074797	1.1517896	0	-0.0004116	-0.0100699	-0.0004148
H	-1.6227894	1.3077695	-0.0633599	0	-0.0030448	-0.0006384	-0.0000522
H	-2.0869792	-0.7299797	0.9834196	0	-0.0017647	0.0022464	0.0016942
H	-1.7092293	-1.4479695	-0.5920298	0	-0.0015775	-0.0003818	-0.0018465
H	0.2136799	-1.4864894	1.0115196	0	-0.0023399	-0.0018267	0.0003459
H	1.7526993	-1.0140796	-0.8602397	0	0.0000378	-0.0006529	-0.0073415
H	0.5263498	0.0449600	-1.6095394	0	-0.0025334	-0.0004078	0.0002178
H	1.2935695	1.9051592	-0.1834999	0	0.0001365	0.0035708	-0.0001998
H	2.3576991	0.8009497	0.7257397	0	0.0026092	-0.0016399	0.0026774
