14
Properties=species:S:1:pos:R:3:molID:I:1:forces_dft:R:3 Nmols=1 Comp=VC(1) energy_dft=-8372.302505237119 pbc="F F F"
O	1.9661592	1.0544596	0.0359900	0	-0.0044245	-0.0000348	-0.0052828
C	1.2450795	-0.1573599	0.1502200	0	0.0048782	-0.0030238	0.0024125
C	-0.1914999	0.1834099	0.4572398	0	-0.0067097	0.0001585	-0.0060385
C	-0.9929896	0.7490697	-0.7213897	0	0.0035294	-0.0006879	0.0045723
O	-1.7632293	-0.4599898	-0.8324797	0	0.0031841	0.0039108	-0.0191794
C	-1.1684995	-0.9946896	0.3568099	0	-0.0010935	0.0032228	0.0042612
H	2.8637889	0.8608696	-0.2362199	0	0.0027198	-0.0005888	-0.0026650
H	1.6558793	-0.7865897	0.9516496	0	-0.0004320	-0.0014937	0.0024555
H	1.2891595	-0.7319897	-0.7854697	0	-0.0018984	-0.0022818	-0.0021567
H	-0.2456999	0.7647597	1.3773295	0	0.0022270	-0.0020223	0.0014058
H	-1.6261793	1.6085794	-0.4847198	0	-0.0035051	-0.0008832	-0.0013011
H	-0.4200299	0.9595096	-1.6283294	0	0.0037360	-0.0004350	-0.0036077
H	-1.8914893	-1.0708296	1.1744795	0	-0.0008472	-0.0048284	0.0030772
H	-0.7204597	-1.9792092	0.1848899	0	-0.0011635	-0.0029570	-0.0030926
