14
Properties=species:S:1:pos:R:3:molID:I:1:forces_dft:R:3 Nmols=1 Comp=VC(1) energy_dft=-8371.978315276121 pbc="F F F"
C	2.0013292	-0.0411100	0.4128098	0	-0.0075222	0.0068796	0.0043050
O	0.7532597	0.5058998	0.7578697	0	0.0139458	0.0013527	-0.0049174
C	-0.1972699	0.3641299	-0.2519999	0	-0.0016765	0.0030722	-0.0018682
C	-0.8795196	-1.0053096	-0.4175299	0	0.0103263	0.0019334	-0.0015805
O	-2.1720891	-0.4121298	-0.2315199	0	-0.0061131	0.0086434	0.0010639
C	-1.5902194	0.8463297	0.1411399	0	-0.0067877	-0.0060039	-0.0035249
H	1.9361892	-1.1236696	0.2455399	0	-0.0000112	-0.0047203	0.0009791
H	2.4058690	0.4278798	-0.4934098	0	-0.0010271	0.0011841	-0.0019570
H	2.6808289	0.1457199	1.2426195	0	0.0044717	0.0001834	0.0011897
H	0.1761400	0.7828397	-1.1944995	0	0.0016182	0.0035212	-0.0009136
H	-0.6306198	-1.7072194	0.3860599	0	-0.0000506	-0.0034024	0.0003100
H	-0.7946297	-1.5019894	-1.3868695	0	-0.0007239	-0.0046242	-0.0019592
H	-1.6764894	1.0397096	1.2145695	0	-0.0015656	0.0046648	0.0039816
H	-2.0127792	1.6789293	-0.4247698	0	0.0000958	0.0030334	-0.0027211
