15
Properties=species:S:1:pos:R:3:molID:I:1:forces_dft:R:3 Nmols=1 Comp=VC(1) energy_dft=-9408.378271628189 pbc="F F F"
C	-1.3417194	1.2037995	-0.3277498	0	0.0029408	-0.0018109	-0.0108611
C	-0.2748399	0.2084399	-0.0040600	0	-0.0049215	0.0045300	0.0017085
C	-0.0756900	-0.4663598	1.3407395	0	0.0008264	0.0031916	0.0023792
O	1.3642495	-0.4607698	1.1892795	0	-0.0005856	0.0097561	0.0073658
C	1.2440395	0.2696499	-0.0286500	0	0.0093338	0.0010795	0.0029230
C	0.5231698	-0.5718598	-1.0178696	0	-0.0070305	-0.0040353	0.0075475
O	0.6329398	-1.9549692	-1.0201896	0	0.0030508	0.0003092	-0.0105705
H	-1.4140294	1.9767392	0.4408798	0	-0.0018863	0.0003605	0.0024957
H	-1.1406395	1.6970993	-1.2802595	0	0.0034786	0.0015104	-0.0022402
H	-2.3154391	0.7146297	-0.4087898	0	-0.0010876	-0.0031286	-0.0007398
H	-0.4803898	-1.4746494	1.4629294	0	-0.0005197	-0.0026163	-0.0009184
H	-0.3638599	0.1619400	2.1866192	0	0.0007033	0.0043438	-0.0003063
H	1.9666792	1.0514496	-0.2266299	0	0.0023219	-0.0006656	-0.0029439
H	0.4674498	-0.1607800	-2.0206492	0	-0.0033405	0.0050629	-0.0021068
H	1.2080995	-2.1943691	-0.2855899	0	-0.0000178	0.0002519	-0.0015956
