15
Properties=species:S:1:pos:R:3:molID:I:1:forces_dft:R:3 Nmols=1 Comp=VC(1) energy_dft=-9410.832837530992 pbc="F F F"
C	-0.8583897	1.2796195	-0.4147398	0	0.0048698	-0.0061231	0.0012478
C	-0.1196699	0.0741700	0.1187200	0	0.0018138	0.0068816	-0.0026782
C	-1.0195996	-0.9114096	0.8268597	0	0.0050296	0.0094730	-0.0055771
C	0.9409296	-0.5317698	-0.8153697	0	-0.0000939	0.0029550	0.0121665
C	1.9212292	-0.0115900	0.2174799	0	0.0312634	-0.0015381	0.0049768
O	3.0950588	0.0026900	0.3813199	0	-0.0114455	0.0003702	-0.0053167
O	0.9625096	0.5099898	1.0249896	0	0.0159330	-0.0074272	-0.0027708
H	-0.1697799	1.9837392	-0.8833697	0	-0.0066297	0.0002636	-0.0051467
H	-1.5974294	0.9705696	-1.1565696	0	-0.0071949	0.0038646	-0.0045870
H	-1.3784095	1.7944993	0.3945099	0	-0.0050109	0.0015151	-0.0005765
H	-0.4455398	-1.7471893	1.2285495	0	-0.0072791	-0.0012630	0.0012815
H	-1.5406994	-0.4244199	1.6525393	0	-0.0061059	0.0003697	0.0013680
H	-1.7656093	-1.3034495	0.1327000	0	-0.0067254	0.0005630	-0.0029669
H	0.9342596	-1.6161494	-0.9118597	0	0.0016100	-0.0049699	0.0016639
H	1.0411296	-0.0693000	-1.7957293	0	-0.0055674	-0.0013388	-0.0018337
