12
Properties=species:S:1:pos:R:3:molID:I:1:forces_dft:R:3 Nmols=1 Comp=VC(1) energy_dft=-8338.400462268301 pbc="F F F"
C	-1.3938295	0.4603798	0.0846400	0	0.0051295	0.0064861	-0.0017474
O	-0.6459898	0.7627197	-1.1135095	0	-0.0066530	-0.0071926	-0.0071740
C	0.2937699	-0.2804099	-0.8461897	0	-0.0088155	0.0141284	-0.0026500
C	1.4626894	0.1663000	0.0278400	0	-0.0065867	0.0068517	0.0032704
O	0.7175097	-0.1213900	1.2311995	0	0.0017925	0.0148053	0.0027193
C	-0.3918999	-0.6205897	0.4810898	0	0.0019673	-0.0031637	0.0016413
H	-2.3943191	0.0934900	-0.1625199	0	-0.0031700	-0.0076251	0.0022869
H	-1.4577294	1.3084695	0.7697997	0	-0.0055139	0.0008229	0.0002935
H	0.4678598	-0.9369596	-1.6969093	0	0.0005806	-0.0026803	0.0002480
H	2.3560691	-0.4614998	-0.0374500	0	0.0030226	-0.0046936	-0.0006829
H	1.7305293	1.2212295	-0.0632600	0	-0.0015086	0.0024949	-0.0046547
H	-0.7446597	-1.5917394	0.8239797	0	-0.0023947	-0.0032230	0.0011574
