12
Properties=species:S:1:pos:R:3:molID:I:1:forces_dft:R:3 Nmols=1 Comp=VC(1) energy_dft=-7324.655057195326 pbc="F F F"
C	2.7511589	-0.1242900	0.0639700	0	-0.0194733	0.0047365	-0.0044286
C	1.6079093	0.0340400	-0.2540799	0	0.0139897	-0.0040999	-0.0027719
C	0.2118899	0.2041299	-0.6405498	0	-0.0008714	-0.0012977	0.0013475
C	-0.8188497	-0.7427597	0.0053900	0	-0.0011874	-0.0046103	0.0059783
C	-1.4707194	0.5481098	0.5101298	0	-0.0009718	0.0007377	0.0043361
O	-0.4150998	1.3509995	-0.0433800	0	0.0064677	0.0236101	-0.0084748
H	3.7687985	-0.2568399	0.3467898	0	0.0037815	-0.0000466	0.0039321
H	0.1460499	0.2522999	-1.7324893	0	-0.0034450	-0.0044191	-0.0045100
H	-1.4026195	-1.3399995	-0.6910198	0	-0.0013981	-0.0015382	-0.0010588
H	-0.4029698	-1.3797794	0.7819597	0	0.0016179	0.0010715	0.0023637
H	-1.5387594	0.6631297	1.5940894	0	-0.0003673	0.0026233	0.0036826
H	-2.4367890	0.7909597	0.0591900	0	-0.0032031	0.0017568	0.0018534
