17
Properties=species:S:1:pos:R:3:molID:I:1:forces_dft:R:3 Nmols=1 Comp=VC(1) energy_dft=-9438.493532507722 pbc="F F F"
C	-2.1628892	-0.5093498	0.3575899	0	0.0024469	-0.0097441	-0.0007979
C	-1.0625896	0.2656899	-0.3517199	0	0.0079797	0.0017918	-0.0024216
O	-0.9037496	1.5573794	0.2019299	0	-0.0077200	-0.0042778	-0.0021432
C	0.2569999	-0.4870998	-0.3214499	0	-0.0049099	0.0024433	0.0021036
C	1.5005394	0.2146499	-0.8805796	0	0.0001689	-0.0052824	0.0034060
C	2.0642092	0.0330200	0.5305198	0	-0.0092601	-0.0066115	0.0034258
O	0.8149497	-0.4966298	1.0102196	0	-0.0083342	0.0084168	-0.0039144
H	-3.0872288	0.0681300	0.3575199	0	-0.0025748	-0.0029124	0.0010241
H	-2.3490091	-1.4663794	-0.1347199	0	0.0002708	-0.0027545	0.0007403
H	-1.8785792	-0.7103297	1.3933795	0	0.0015968	-0.0017161	0.0034511
H	-1.3348695	0.4233998	-1.4004995	0	-0.0008454	0.0006371	-0.0014386
H	-0.5301398	1.4320294	1.0806196	0	0.0069262	0.0014061	0.0057785
H	0.1138299	-1.5094094	-0.6900797	0	0.0037970	-0.0021820	-0.0001551
H	2.0234892	-0.3039999	-1.6809893	0	0.0020817	-0.0012748	-0.0011431
H	1.3194295	1.2513495	-1.1573595	0	0.0017952	0.0033763	-0.0029298
H	2.3498591	0.9427796	1.0638896	0	0.0036669	0.0024690	-0.0033575
H	2.8657489	-0.7052297	0.6217297	0	0.0022964	-0.0010070	0.0043305
