11
Properties=species:S:1:pos:R:3:molID:I:1:forces_dft:R:3 Nmols=1 Comp=VC(1) energy_dft=-7763.064549075942 pbc="F F F"
N	2.6024190	-0.8116997	0.7859597	0	0.0100329	0.0032034	-0.0015987
C	1.5910494	-0.6262498	0.2769399	0	0.0021889	0.0011210	-0.0029426
C	0.3067199	-0.3770098	-0.3523299	0	-0.0037950	-0.0012284	0.0018830
C	-0.9585596	-0.5134598	0.5194198	0	-0.0052930	0.0026621	-0.0088897
O	-1.3967495	0.7960397	0.1467999	0	0.0048843	0.0076624	0.0052001
C	-0.1491000	1.0902496	-0.4874198	0	-0.0034679	-0.0057225	0.0000065
H	0.2465399	-0.9325096	-1.2866895	0	0.0015543	-0.0019282	-0.0005774
H	-0.7522897	-0.5908998	1.5903294	0	0.0006821	-0.0000211	0.0053296
H	-1.6651094	-1.2885395	0.2193799	0	-0.0021860	-0.0032505	-0.0008443
H	0.4523998	1.7944493	0.0934300	0	0.0006203	0.0013685	-0.0021911
H	-0.2773299	1.4596294	-1.5058294	0	-0.0023691	-0.0005407	-0.0032558
