17
Properties=species:S:1:pos:R:3:molID:I:1:forces_dft:R:3 Nmols=1 Comp=VC(1) energy_dft=-9438.122697489744 pbc="F F F"
O	1.9010593	0.1851499	1.2371895	0	-0.0106789	-0.0051930	-0.0176107
C	1.8760293	-0.4391398	-0.0351100	0	0.0041002	0.0030997	0.0037681
C	0.4510798	-0.8561697	-0.3363099	0	-0.0056542	-0.0014320	0.0023979
C	-0.5183698	0.3080399	-0.3780599	0	-0.0003870	-0.0049980	-0.0014295
C	-2.0042792	0.0023200	-0.6135398	0	0.0018436	0.0039234	0.0006456
O	-2.3907491	0.7508997	0.5444998	0	0.0065022	0.0040205	-0.0087936
C	-1.0181996	0.9058496	0.9449296	0	-0.0043852	-0.0085495	-0.0007927
H	2.7886989	0.4966998	1.4163594	0	0.0046237	0.0041126	0.0010355
H	2.5306690	-1.3193995	-0.0488000	0	0.0002994	-0.0007583	-0.0021472
H	2.2280791	0.2545299	-0.8109497	0	-0.0012130	0.0023177	-0.0062726
H	0.1243499	-1.5819194	0.4155798	0	0.0001330	-0.0035581	0.0031903
H	0.4457498	-1.3737795	-1.3013495	0	0.0036903	-0.0022749	0.0012934
H	-0.1516600	1.0794696	-1.0591196	0	-0.0024651	0.0044837	0.0014073
H	-2.2635291	-1.0592696	-0.5144098	0	0.0021024	-0.0036849	0.0004908
H	-2.4542190	0.3967298	-1.5284094	0	-0.0013999	0.0013233	-0.0015113
H	-0.7641297	1.9485092	1.1454796	0	0.0001113	0.0042790	-0.0014873
H	-0.7805897	0.3014699	1.8249093	0	0.0006899	-0.0024151	0.0017051
