13
Properties=species:S:1:pos:R:3:molID:I:1:forces_dft:R:3 Nmols=1 Comp=VC(1) energy_dft=-10387.141762091367 pbc="F F F"
C	1.9438293	-0.0814800	-0.4010099	0	-0.0125061	0.0022639	0.0018620
O	0.8983897	0.5298398	0.3319699	0	0.0051261	-0.0035166	0.0010822
C	-0.2679099	-0.2173899	0.3401099	0	0.0060426	0.0053187	-0.0031553
C	-1.4634994	0.4701798	0.9932296	0	-0.0044970	-0.0057210	-0.0130252
O	-2.2175091	0.3678998	-0.2483799	0	0.0051054	-0.0089865	-0.0022054
C	-1.1553395	-0.1593200	-0.9162096	0	0.0065254	0.0110724	0.0218273
O	-1.0720596	-0.4175898	-2.0685992	0	-0.0031014	0.0034697	0.0136569
H	2.1946392	-1.0622196	0.0208300	0	0.0031161	-0.0036493	-0.0045324
H	2.8086589	0.5737298	-0.3216299	0	0.0033047	0.0016512	0.0010136
H	1.6734993	-0.2038399	-1.4535294	0	-0.0040332	0.0004409	-0.0082372
H	-0.0978300	-1.2492295	0.6738897	0	-0.0034002	-0.0048869	-0.0009725
H	-1.2789795	1.5114994	1.2511095	0	-0.0016766	0.0015609	-0.0031596
H	-1.9658792	-0.0620800	1.7982193	0	-0.0035500	-0.0039819	-0.0051285
