14
Properties=species:S:1:pos:R:3:molID:I:1:forces_dft:R:3 Nmols=1 Comp=VC(1) energy_dft=-7358.113459852899 pbc="F F F"
C	-1.2345195	-0.9994596	-0.6693998	0	0.0022342	0.0085662	0.0016310
C	-1.5353794	0.4872898	-0.6260098	0	-0.0010436	-0.0017164	0.0012312
C	-0.1711799	-0.0187900	-0.3418799	0	0.0016192	0.0018085	0.0042683
C	0.6909097	0.1111500	0.8997196	0	-0.0045454	0.0015851	-0.0007323
C	1.8216493	0.3473799	-0.1107600	0	-0.0081135	-0.0092109	-0.0029021
O	0.9171296	0.2270799	-1.2227795	0	-0.0088571	-0.0003621	-0.0051433
H	-1.1857095	-1.4662394	-1.6447794	0	-0.0022853	-0.0033733	-0.0008203
H	-1.6169694	-1.6296894	0.1239899	0	0.0010149	0.0010574	0.0019215
H	-2.1256991	0.8742597	0.1952799	0	0.0003128	-0.0011606	0.0005226
H	-1.6792993	0.9888096	-1.5744394	0	0.0021893	0.0004294	-0.0029029
H	0.7789897	-0.7928697	1.4998994	0	-0.0067921	-0.0010205	-0.0014849
H	0.4541398	0.9595296	1.5398294	0	-0.0035049	0.0015971	0.0046054
H	2.2894791	1.3340494	-0.0792500	0	0.0039199	0.0010942	0.0009472
H	2.5964590	-0.4224898	-0.1402800	0	0.0026112	-0.0018407	0.0014067
