11
Properties=species:S:1:pos:R:3:molID:I:1:forces_dft:R:3 Nmols=1 Comp=VC(1) energy_dft=-10353.510851471185 pbc="F F F"
O	-0.3157799	2.0567492	-1.4122294	0	-0.0041170	-0.0179506	-0.0078020
C	-0.5433898	1.1438195	-0.6992897	0	-0.0006974	0.0238546	0.0060861
O	-1.7567093	0.6300797	-0.3292199	0	0.0045542	-0.0119087	-0.0051744
C	-1.1654495	-0.3659399	0.5523498	0	-0.0039605	0.0080873	-0.0060727
C	0.2077099	0.1090799	0.1170399	0	0.0092621	-0.0046828	0.0039288
C	1.4663694	-0.5651298	-0.1559399	0	0.0006732	0.0041170	-0.0042041
O	1.3148595	0.3501999	0.9223596	0	-0.0090796	0.0017108	0.0000878
H	-1.4586494	-1.3722495	0.2573799	0	-0.0002736	-0.0080780	-0.0029546
H	-1.4113195	-0.1642099	1.5939494	0	0.0000642	-0.0045911	0.0016255
H	2.0843192	-0.2159799	-0.9768996	0	-0.0008902	0.0038105	-0.0024662
H	1.5780294	-1.6064194	0.1305200	0	0.0015367	-0.0051858	-0.0039711
