15
Properties=species:S:1:pos:R:3:molID:I:1:forces_dft:R:3 Nmols=1 Comp=VC(1) energy_dft=-8398.743347027426 pbc="F F F"
C	-1.4558294	-0.4787698	-0.7118397	0	0.0088877	-0.0068189	0.0055236
O	-0.8456097	-1.7072893	-0.2866699	0	0.0087760	0.0062949	-0.0069474
C	-0.0405100	-1.0050896	0.6823297	0	-0.0028409	-0.0006732	-0.0077377
C	1.3718695	-0.7631897	0.2381399	0	0.0025917	0.0126731	0.0011973
C	1.5525994	0.4902398	-0.1582000	0	0.0016996	-0.0084062	-0.0049422
C	0.3113099	1.3372495	-0.0352300	0	0.0098662	0.0017118	0.0008393
C	-0.7570497	0.3282599	0.3924698	0	-0.0055746	0.0031639	0.0045513
H	-1.1612996	-0.2074899	-1.7316393	0	-0.0014244	0.0005343	-0.0045194
H	-2.5456990	-0.5342198	-0.6536798	0	-0.0064869	-0.0038847	-0.0004033
H	-0.1275100	-1.4680494	1.6686593	0	-0.0042578	-0.0049647	0.0015521
H	2.1272792	-1.5386394	0.2331099	0	-0.0010111	-0.0006102	-0.0021259
H	2.4884090	0.8881797	-0.5335298	0	0.0006345	0.0012120	-0.0010640
H	0.4491398	2.1284892	0.7075197	0	0.0049702	-0.0010154	-0.0001419
H	0.0609600	1.8351093	-0.9772396	0	-0.0035658	0.0001905	-0.0015745
H	-1.4280394	0.6952197	1.1657995	0	0.0021095	-0.0018114	0.0014793
