13
Properties=species:S:1:pos:R:3:molID:I:1:forces_dft:R:3 Nmols=1 Comp=VC(1) energy_dft=-6322.137259222059 pbc="F F F"
C	-1.2591095	-0.8255297	0.0135900	0	0.0063950	0.0071257	0.0048052
C	-0.0162300	-0.0978900	0.4798298	0	-0.0059526	-0.0041362	-0.0080338
C	1.2862895	-0.3490999	-0.2958099	0	-0.0001853	0.0018756	-0.0010574
O	1.4207294	1.0415296	-0.6193298	0	0.0001296	-0.0080491	0.0002746
C	0.1724800	1.3542395	0.0141700	0	-0.0078027	0.0069163	0.0099497
H	-2.1538491	-0.4295298	0.4991098	0	-0.0018318	0.0017764	-0.0000392
H	-1.2014295	-1.8922793	0.2413999	0	0.0021115	-0.0038611	-0.0023390
H	-1.3896994	-0.7194197	-1.0663996	0	-0.0013066	0.0001903	-0.0057455
H	0.1119399	-0.2106899	1.5572694	0	-0.0010819	-0.0034166	0.0036544
H	1.1716495	-0.9650696	-1.1949395	0	-0.0009462	-0.0029671	-0.0030436
H	2.1379192	-0.7160697	0.2834499	0	0.0025378	-0.0017613	0.0010985
H	0.2927199	2.1078592	0.7970897	0	0.0029867	0.0012077	0.0021525
H	-0.5734298	1.7019393	-0.7094297	0	-0.0044935	-0.0015239	-0.0018785
