19
Properties=species:S:1:pos:R:3:molID:I:1:forces_dft:R:3 Nmols=1 Comp=VC(1) energy_dft=-8460.372234230153 pbc="F F F"
C	2.7613989	0.2535899	0.3067399	0	-0.0058094	-0.0118768	0.0003916
C	1.4244794	-0.4717398	0.3784199	0	0.0032083	0.0032018	0.0033481
C	0.2368699	0.4783898	0.4849298	0	-0.0037935	-0.0058377	-0.0067110
C	-1.0992096	-0.2377199	0.4942498	0	0.0006916	-0.0021711	-0.0029042
C	-1.5978794	-0.8024897	-0.8458397	0	-0.0041115	0.0116651	0.0002049
O	-2.7602289	0.0370300	-0.8243096	0	-0.0004688	-0.0077098	0.0116926
C	-2.3618991	0.6329198	0.4181899	0	-0.0026859	0.0062717	0.0000240
H	2.8065689	0.9061096	-0.5685798	0	0.0002463	-0.0009616	-0.0029078
H	2.9196388	0.8762696	1.1906995	0	0.0000872	0.0035747	0.0012613
H	3.5946786	-0.4480098	0.2405899	0	0.0030473	-0.0026410	-0.0004841
H	1.4178294	-1.1507196	1.2375295	0	-0.0002795	0.0005140	0.0007548
H	1.3046695	-1.1035396	-0.5084098	0	0.0026923	-0.0015540	-0.0039132
H	0.2562899	1.1858495	-0.3528299	0	0.0017054	-0.0011830	-0.0007922
H	0.3313998	1.0795296	1.3965794	0	-0.0011788	0.0001898	0.0012632
H	-1.1321695	-0.9684896	1.3047795	0	-0.0018430	-0.0001923	0.0047171
H	-1.8632793	-1.8633093	-0.8587697	0	0.0000422	-0.0051365	-0.0018430
H	-0.9550496	-0.5834598	-1.7060593	0	0.0037790	0.0055172	0.0002773
H	-2.1764391	1.7074193	0.3119499	0	-0.0003566	0.0034154	0.0090100
H	-3.1076688	0.4723798	1.2017395	0	-0.0004477	0.0015940	0.0006303
