16
Properties=species:S:1:pos:R:3:molID:I:1:forces_dft:R:3 Nmols=1 Comp=VC(1) energy_dft=-7395.330530462982 pbc="F F F"
C	2.1378892	-0.1312600	-0.4046499	0	-0.0019633	0.0065078	0.0016528
C	1.0246296	0.5841398	0.3495399	0	0.0034186	0.0012737	-0.0052068
C	-0.2949099	0.5031998	-0.3800798	0	-0.0008521	0.0008634	0.0049150
C	-1.0524596	-0.8341597	-0.3811298	0	0.0015123	-0.0026313	0.0095401
C	-2.2050891	-0.0102400	0.2003599	0	0.0012001	0.0021045	0.0053319
O	-1.3692795	1.1478096	0.3297599	0	0.0090747	-0.0150350	-0.0007731
H	1.9030792	-1.1888995	-0.5498598	0	-0.0016669	-0.0025068	0.0020568
H	2.2945891	0.3105199	-1.3917095	0	-0.0000135	-0.0016925	-0.0035620
H	3.0823988	-0.0754700	0.1376399	0	0.0022403	-0.0014597	0.0013537
H	0.8981396	0.1544299	1.3479095	0	0.0003975	-0.0035501	0.0030688
H	1.2751095	1.6394794	0.4909998	0	-0.0012485	0.0025483	0.0001348
H	-0.1941299	0.9361696	-1.3846095	0	-0.0015442	0.0025655	-0.0032951
H	-0.6372398	-1.5671994	0.3109799	0	0.0058388	-0.0007160	-0.0022617
H	-1.2224795	-1.3021595	-1.3485395	0	-0.0014358	-0.0024306	-0.0023813
H	-2.6070290	-0.3340599	1.1632695	0	-0.0012965	-0.0014971	0.0018221
H	-3.0332288	0.1677099	-0.4930498	0	0.0014103	-0.0014160	-0.0012266
