16
Properties=species:S:1:pos:R:3:molID:I:1:forces_dft:R:3 Nmols=1 Comp=VC(1) energy_dft=-7391.254947560382 pbc="F F F"
C	1.9749792	0.5828598	0.1373400	0	0.0006209	0.0002339	-0.0131734
C	0.8600397	-0.1123699	-0.6338497	0	0.0017416	-0.0057806	0.0004874
C	-0.3218999	-0.4762998	0.2438899	0	0.0022265	0.0058545	-0.0040288
C	-1.5919694	-0.9777296	-0.4590598	0	-0.0003123	-0.0012183	0.0039690
O	-2.3638991	0.1237599	0.0387300	0	-0.0082389	-0.0053933	0.0138897
C	-1.2249295	0.6763197	0.7121297	0	0.0022315	-0.0035964	-0.0026974
H	2.3640691	-0.0600200	0.9305896	0	0.0025313	0.0015530	0.0017314
H	1.6166693	1.5037994	0.6041897	0	0.0004162	0.0021499	-0.0003142
H	2.8071189	0.8468497	-0.5169998	0	0.0001791	0.0018188	-0.0041938
H	1.2483195	-1.0199896	-1.1072296	0	-0.0010403	-0.0010066	-0.0013830
H	0.5118898	0.5343698	-1.4466694	0	-0.0023402	-0.0004282	-0.0027903
H	-0.0004000	-1.1253696	1.0608796	0	0.0004407	0.0027667	0.0001212
H	-1.9875392	-1.9377392	-0.1157400	0	-0.0038500	-0.0019930	0.0022950
H	-1.5442294	-0.9790496	-1.5536794	0	0.0008465	0.0009799	-0.0067100
H	-1.3904595	0.7581597	1.7900193	0	0.0008975	0.0027872	0.0061485
H	-0.9577496	1.6624593	0.3154599	0	0.0037534	0.0025611	-0.0036616
