16
Properties=species:S:1:pos:R:3:molID:I:1:forces_dft:R:3 Nmols=1 Comp=VC(1) energy_dft=-7395.548026703206 pbc="F F F"
C	1.9461292	0.9694396	0.0232200	0	0.0015787	-0.0063505	0.0053195
C	1.0447296	-0.1014099	-0.5346398	0	-0.0068396	0.0008132	-0.0080474
C	0.2208899	-0.9590296	0.4344998	0	0.0003871	-0.0011629	-0.0008276
C	-0.9768196	-0.5124898	-0.4136998	0	-0.0005275	0.0064667	-0.0022782
C	-2.1531491	0.1363300	0.2683099	0	0.0015094	-0.0090467	-0.0075316
O	-0.1552299	0.4335598	-1.1247396	0	-0.0115481	0.0031054	-0.0000343
H	2.2794891	1.6382593	-0.7722997	0	-0.0003284	0.0011930	-0.0014177
H	1.4175795	1.5625594	0.7719497	0	0.0003566	0.0025647	-0.0001084
H	2.8276489	0.5205998	0.4871298	0	0.0033952	-0.0017543	0.0021061
H	1.5865994	-0.7059497	-1.2728195	0	-0.0015106	-0.0022461	0.0005012
H	0.4390098	-2.0248792	0.4641298	0	-0.0019190	-0.0042111	-0.0008797
H	0.2007999	-0.5594398	1.4498394	0	-0.0019132	0.0019205	0.0007597
H	-1.3204995	-1.2966695	-1.0999196	0	-0.0031929	-0.0055961	-0.0005036
H	-2.7255489	-0.6078898	0.8273097	0	-0.0017542	0.0015217	-0.0004352
H	-1.8165393	0.9112097	0.9596596	0	-0.0028834	0.0040251	0.0027963
H	-2.8150789	0.5958098	-0.4679298	0	0.0010188	0.0001828	0.0000387
