12
Properties=species:S:1:pos:R:3:molID:I:1:forces_dft:R:3 Nmols=1 Comp=VC(1) energy_dft=-7327.318294977339 pbc="F F F"
C	2.5289790	-0.3628298	-0.2075699	0	-0.0153956	0.0063053	0.0007679
C	1.3819194	-0.2855199	0.1281299	0	0.0134485	-0.0045259	0.0065943
C	-0.0142800	-0.1827199	0.5073398	0	0.0007655	-0.0001211	-0.0067710
C	-1.0772796	-0.7566597	-0.4516198	0	-0.0004715	0.0097718	0.0035487
O	-1.8090693	0.4737498	-0.4377798	0	0.0047660	-0.0032044	0.0056596
C	-0.7477397	1.1489995	0.2458299	0	-0.0011314	-0.0013103	0.0011909
H	3.5491586	-0.4336598	-0.5027898	0	0.0038817	-0.0037567	-0.0050680
H	-0.1532799	-0.5329898	1.5301194	0	-0.0004240	0.0022700	0.0020807
H	-0.6887697	-0.9916996	-1.4466894	0	0.0010618	-0.0032675	-0.0019643
H	-1.6687293	-1.5938094	-0.0760800	0	-0.0008520	-0.0032475	0.0040324
H	-1.1014695	1.6900294	1.1254696	0	-0.0008757	0.0005510	0.0026911
H	-0.1994199	1.8270993	-0.4143498	0	-0.0002525	0.0025580	-0.0010251
