9
Properties=species:S:1:pos:R:3:molID:I:1:forces_dft:R:3 Nmols=1 Comp=VC(1) energy_dft=-7267.940860504796 pbc="F F F"
O	2.0838092	-0.7528997	-0.0445000	0	-0.0104076	-0.0100777	-0.0071005
C	1.1534795	-0.1020200	-0.2125399	0	0.0102718	0.0039796	0.0074712
C	0.2993099	0.9532096	0.0567300	0	-0.0041725	-0.0072402	-0.0078928
C	-0.9453296	-0.6863297	0.0987100	0	0.0181181	0.0099188	-0.0060364
O	-0.3705798	-1.1289495	-0.9375496	0	-0.0002529	0.0005662	-0.0021088
H	-0.3159999	1.2907895	-0.7608797	0	-0.0015493	-0.0001516	-0.0026632
H	0.7431897	1.7308093	0.6764797	0	-0.0018829	-0.0035192	-0.0016504
H	-1.9351792	-0.2145699	0.0299000	0	-0.0067197	-0.0000424	0.0021403
H	-0.7126997	-1.0900496	1.0936396	0	-0.0011977	-0.0053468	0.0026835
