11
Properties=species:S:1:pos:R:3:molID:I:1:forces_dft:R:3 Nmols=1 Comp=VC(1) energy_dft=-8774.028322880289 pbc="F F F"
O	0.1031799	1.3974995	1.1635295	0	-0.0044486	0.0094165	-0.0089107
C	0.6334897	0.6533798	0.1444399	0	0.0019865	-0.0024126	-0.0011200
C	1.1469896	-0.6259498	0.4282698	0	0.0185571	0.0053127	0.0070371
O	-0.1100300	-1.3270095	-1.1372895	0	-0.0036423	-0.0088328	0.0067584
C	-0.5964198	-0.3160199	-0.5694397	0	0.0075954	-0.0037012	0.0016250
N	-1.7118493	0.1839499	-0.2715899	0	0.0097884	0.0093491	-0.0008666
H	-0.8588197	1.4003495	0.9876396	0	-0.0031166	0.0031740	0.0052046
H	1.1091895	1.2134595	-0.6604397	0	-0.0035166	0.0014350	-0.0024115
H	1.9091492	-1.1066395	-0.1648000	0	-0.0048072	-0.0011278	-0.0065021
H	0.8307697	-1.1082696	1.3476695	0	-0.0016704	-0.0021414	-0.0021504
H	-2.5009590	-0.3857399	-0.5569398	0	-0.0062984	-0.0034064	-0.0026458
