14
Properties=species:S:1:pos:R:3:molID:I:1:forces_dft:R:3 Nmols=1 Comp=VC(1) energy_dft=-8369.583768798746 pbc="F F F"
C	1.5890894	0.6465197	0.0970399	0	0.0030710	-0.0049834	-0.0072907
C	0.7269197	-0.4804698	-0.2755699	0	-0.0006832	-0.0004845	0.0088788
O	-0.2721899	-1.3677695	1.4831694	0	0.0028292	-0.0010006	0.0138000
C	-1.0891996	-0.5406398	0.8973796	0	0.0060835	-0.0053746	-0.0003886
C	-0.5764198	-0.2987799	-0.7784497	0	0.0003020	0.0071222	0.0107170
O	-0.8925697	0.9741096	-1.2378095	0	0.0008413	-0.0034829	0.0082389
H	0.9970496	1.4448994	0.5473998	0	0.0033185	0.0040037	-0.0038752
H	2.3984890	0.3408299	0.7540097	0	0.0015118	-0.0007939	0.0012504
H	2.0027092	1.0666496	-0.8280497	0	0.0014858	0.0004174	-0.0017415
H	1.1281195	-1.4811894	-0.2486599	0	0.0036416	-0.0010482	-0.0048450
H	-1.0206196	0.5421998	1.1431295	0	-0.0023606	-0.0001816	0.0016160
H	-2.1674191	-0.8195997	0.8619696	0	-0.0084373	0.0006152	-0.0057327
H	-0.9910996	-1.1161195	-1.3680994	0	0.0002213	0.0004183	-0.0026572
H	-1.8080393	1.1663496	-1.0185196	0	-0.0070318	0.0028035	0.0012384
