11
Properties=species:S:1:pos:R:3:molID:I:1:forces_dft:R:3 Nmols=1 Comp=VC(1) energy_dft=-10348.504128191902 pbc="F F F"
O	-0.5124098	2.4416090	-0.6262298	0	0.0018522	-0.0146860	-0.0043773
C	-0.1206899	1.3801494	-0.4637698	0	-0.0040625	-0.0016165	-0.0066182
O	-1.5983894	-0.0686300	-0.9220296	0	0.0126499	0.0004303	0.0022042
C	-1.5309994	-0.4151798	0.2689199	0	0.0184461	0.0112207	-0.0050527
C	0.4739598	0.3485099	0.2850199	0	-0.0036232	0.0010716	0.0043702
C	1.4513594	-0.6385497	-0.1255799	0	-0.0026163	-0.0005478	0.0100466
O	1.7977393	0.4820598	0.6938397	0	-0.0138002	-0.0027261	-0.0048062
H	-1.2993195	-1.4540094	0.5458598	0	-0.0005181	-0.0043086	-0.0002044
H	-1.9684992	0.1956499	1.0716696	0	-0.0019183	0.0018328	0.0018955
H	1.8740793	-0.6186298	-1.1243896	0	0.0018264	-0.0030524	-0.0018457
H	1.4523694	-1.5990194	0.3797298	0	-0.0032462	-0.0012761	0.0040293
