14
Properties=species:S:1:pos:R:3:molID:I:1:forces_dft:R:3 Nmols=1 Comp=VC(1) energy_dft=-7357.705413459983 pbc="F F F"
C	1.7201593	-0.2588999	0.3219399	0	0.0001941	0.0019290	-0.0045422
C	0.7677197	0.6615297	-0.4125598	0	-0.0012924	-0.0037371	0.0035765
C	-0.3788099	0.1139800	-1.2023495	0	-0.0016451	-0.0122832	0.0098106
C	-1.7252193	-0.9901996	0.6084298	0	0.0098015	0.0081523	0.0012879
O	-1.1143596	-0.0135500	1.1189596	0	-0.0038199	-0.0049000	0.0058047
C	-0.6453897	0.8908096	-0.0169400	0	0.0019155	0.0003919	-0.0041805
H	1.2138195	-1.1679495	0.6488597	0	-0.0035555	-0.0016133	-0.0004301
H	2.1682492	0.2259099	1.1937395	0	-0.0019126	-0.0008908	0.0029854
H	2.5264990	-0.5611198	-0.3494899	0	0.0020962	-0.0010501	-0.0012392
H	1.2456095	1.5934194	-0.7223997	0	0.0009018	0.0013601	0.0018057
H	-0.6548897	0.4220698	-2.2027591	0	-0.0006942	-0.0027074	-0.0033650
H	-1.9469292	-1.8157493	1.2822295	0	-0.0017305	0.0013956	0.0029109
H	-2.0825892	-0.9632496	-0.4103898	0	0.0023282	0.0040465	-0.0091268
H	-1.0938496	1.8630193	0.1427399	0	-0.0038824	0.0035047	0.0005462
