17
Properties=species:S:1:pos:R:3:molID:I:1:forces_dft:R:3 Nmols=1 Comp=VC(1) energy_dft=-8428.595380899225 pbc="F F F"
C	-1.8613592	-0.0688100	1.3404795	0	0.0059428	-0.0014608	-0.0049473
C	-1.7908793	0.5899798	0.0072400	0	0.0003728	-0.0015800	0.0044580
C	-0.9300396	-0.6078998	0.2780499	0	0.0017493	0.0020691	0.0012547
C	0.5228198	-0.4107398	0.5305298	0	0.0070022	0.0062062	-0.0050988
C	1.3995894	-0.2059299	-1.1941295	0	-0.0067460	0.0034454	0.0200537
C	2.2222991	0.4945098	-0.3147499	0	0.0010027	0.0007524	0.0209420
O	0.9102496	0.6364498	1.2035295	0	0.0203730	-0.0054000	-0.0015855
H	-1.3906994	0.4431598	2.1682091	0	0.0012733	0.0024165	-0.0005524
H	-2.7260289	-0.6708197	1.5853694	0	-0.0026613	-0.0003058	0.0001589
H	-2.6160490	0.4648098	-0.6812697	0	-0.0025172	-0.0023321	-0.0016049
H	-1.2789595	1.5431094	-0.0370900	0	-0.0078283	0.0003113	-0.0074308
H	-1.2009695	-1.5440194	-0.1958799	0	-0.0100805	-0.0022803	-0.0078197
H	1.0373296	-1.3658294	0.7196297	0	-0.0020515	-0.0046290	-0.0032008
H	1.6522894	-1.2172295	-1.4812394	0	-0.0027205	-0.0041370	-0.0037477
H	0.7686197	0.3528899	-1.8732593	0	-0.0069600	-0.0047419	-0.0022816
H	3.0217988	-0.0073700	0.2163299	0	0.0007268	0.0006195	-0.0003880
H	2.2600091	1.5737294	-0.2990599	0	-0.0001053	0.0036976	-0.0058546
