12
Properties=species:S:1:pos:R:3:molID:I:1:forces_dft:R:3 Nmols=1 Comp=VC(1) energy_dft=-8332.661341933150 pbc="F F F"
C	-1.3609295	0.5916398	-0.0377700	0	0.0042629	0.0028259	0.0044731
O	-0.6592997	1.3837094	-0.8038997	0	-0.0022998	-0.0025321	0.0077064
C	0.3907699	-0.5885398	-0.7006197	0	-0.0000982	0.0124216	0.0045735
C	1.5133594	0.0788300	-0.0230900	0	-0.0035406	-0.0035822	-0.0003772
O	0.8433897	-0.0570500	1.2435095	0	-0.0054876	0.0026136	0.0051588
C	-0.2617199	-0.6255598	0.5536098	0	0.0012901	-0.0001505	-0.0012862
H	-2.0331192	-0.1460199	-0.5180298	0	-0.0021214	-0.0018971	-0.0016937
H	-1.8934692	1.0527296	0.8177297	0	-0.0020017	-0.0047141	-0.0003196
H	0.1891899	-0.9230896	-1.7057093	0	0.0004631	-0.0012902	-0.0023160
H	2.4576690	-0.4754198	-0.0472300	0	0.0009760	-0.0044888	0.0026718
H	1.6354294	1.1229696	-0.3253199	0	0.0079857	0.0021042	-0.0019102
H	-0.8201797	-1.4147694	1.0455296	0	-0.0064625	-0.0014390	-0.0008779
