16
Properties=species:S:1:pos:R:3:molID:I:1:forces_dft:R:3 Nmols=1 Comp=VC(1) energy_dft=-7388.634485948066 pbc="F F F"
C	2.2237191	-0.0956400	-0.4117398	0	0.0010961	0.0035549	0.0053110
C	0.9982096	0.5321498	0.2715399	0	-0.0034404	-0.0057393	-0.0063016
C	-0.1982999	0.2199599	-0.5337698	0	0.0244997	0.0034459	0.0047151
C	-0.9568996	-0.9490396	-0.3965198	0	-0.0007540	-0.0050438	-0.0044198
C	-2.1710491	0.2343299	0.3079799	0	0.0132370	-0.0032328	-0.0002751
O	-1.4975294	1.1803295	0.8890896	0	0.0067548	-0.0044351	-0.0006872
H	2.1311392	-1.1807895	-0.4774698	0	-0.0042081	-0.0062593	-0.0017039
H	2.3674290	0.2937299	-1.4216395	0	-0.0034863	-0.0017606	-0.0052949
H	3.1182588	0.1363100	0.1658099	0	-0.0023826	-0.0018630	0.0004600
H	0.8654897	0.1211999	1.2723495	0	0.0004265	-0.0009038	0.0032331
H	1.1114596	1.6111594	0.3599098	0	-0.0011289	0.0047032	-0.0010792
H	-0.3954198	0.8598297	-1.3899594	0	0.0003130	0.0044408	0.0004001
H	-0.6373697	-1.6594393	0.3589199	0	-0.0013647	-0.0012737	0.0018709
H	-1.4413395	-1.3670295	-1.2697795	0	-0.0031168	0.0003414	-0.0017213
H	-2.8448089	-0.3916099	0.9256196	0	-0.0078836	-0.0029005	-0.0027323
H	-2.6609290	0.4500898	-0.6586297	0	-0.0018926	0.0013292	-0.0028137
