12
Properties=species:S:1:pos:R:3:molID:I:1:forces_dft:R:3 Nmols=1 Comp=VC(1) energy_dft=-8337.033079916841 pbc="F F F"
O	0.8753697	-0.4950398	1.7135793	0	0.0034743	0.0086390	-0.0146042
C	1.2749595	-0.7190897	0.5612698	0	0.0008251	0.0048795	0.0096280
C	0.7763697	-0.0740600	-0.5875698	0	-0.0056937	0.0017205	-0.0021001
C	-1.4826594	-0.4283798	0.0233300	0	0.0069239	-0.0027398	0.0032401
O	-1.4551094	0.7513197	-0.4710998	0	-0.0059833	0.0010593	-0.0072189
C	-0.0256600	1.1706895	-0.4331999	0	-0.0075790	-0.0096024	0.0077941
H	1.9987792	-1.5358894	0.3857399	0	0.0026123	-0.0032235	-0.0041192
H	1.2310495	-0.2834799	-1.5481594	0	-0.0007622	-0.0019530	-0.0035362
H	-2.3935891	-0.9844696	-0.1987899	0	-0.0042865	-0.0009330	0.0007532
H	-0.8502896	-0.7189097	0.8644397	0	-0.0004277	-0.0016851	-0.0033237
H	0.1409699	1.6604594	0.5267598	0	-0.0000782	0.0011563	0.0033841
H	0.0559600	1.8836492	-1.2496995	0	-0.0018363	0.0001960	-0.0030680
