14
Properties=species:S:1:pos:R:3:molID:I:1:forces_dft:R:3 Nmols=1 Comp=VC(1) energy_dft=-8832.922034198697 pbc="F F F"
N	2.2216291	-0.4388698	0.7327597	0	0.0073615	-0.0101798	-0.0206887
C	1.4496894	-0.6166197	-0.2375899	0	0.0018252	-0.0033664	-0.0005111
O	1.2134195	-1.5506394	-1.0297196	0	-0.0055095	0.0135810	-0.0076606
C	-0.5940398	-0.4287098	-0.9551396	0	0.0195304	0.0049886	0.0173982
C	-1.3194895	-0.4441398	0.3546599	0	0.0075807	-0.0070232	-0.0043908
C	-0.5836897	0.8857396	0.6945497	0	0.0009556	-0.0037677	-0.0008592
C	0.2432499	0.6406797	-0.5708098	0	-0.0013262	0.0139785	-0.0082975
H	2.2872991	0.5051598	1.0850696	0	-0.0035123	0.0036936	-0.0016223
H	-0.8320697	-0.9012697	-1.8968592	0	-0.0043060	0.0005604	0.0006093
H	-1.0674396	-1.2930695	0.9910896	0	-0.0044898	-0.0005935	0.0045712
H	-2.4053291	-0.3984899	0.2494399	0	-0.0067227	-0.0005270	0.0004116
H	-0.0380600	0.9155597	1.6369494	0	-0.0072796	-0.0006208	-0.0020602
H	-1.2448495	1.7492293	0.6255298	0	-0.0036529	-0.0002006	-0.0029060
H	0.7110297	1.3691794	-1.2245095	0	0.0069970	-0.0010067	-0.0015126
