17
Properties=species:S:1:pos:R:3:molID:I:1:forces_dft:R:3 Nmols=1 Comp=VC(1) energy_dft=-9434.833374442960 pbc="F F F"
C	1.7299193	1.1430795	-0.4534598	0	-0.0020932	-0.0011882	-0.0025433
O	1.1210296	0.1497599	-1.2568895	0	0.0010581	0.0088327	-0.0105876
C	0.3134199	-0.7809897	-0.6307598	0	-0.0012066	0.0042275	0.0011765
C	0.7537597	-1.2619095	0.6470297	0	-0.0124754	0.0040326	0.0000900
O	-1.4362495	-1.7429693	0.3252899	0	0.0037828	-0.0048283	-0.0027270
C	-1.3496295	-0.6113598	-0.3275899	0	0.0074153	0.0046368	0.0001014
C	-1.7047593	0.6741497	0.4089298	0	0.0053963	0.0004354	-0.0060433
H	1.1901796	1.2749795	0.4903498	0	-0.0052948	-0.0044286	0.0010796
H	2.7681589	0.8855297	-0.2306999	0	0.0046569	-0.0016521	-0.0006601
H	1.7129993	2.0786092	-1.0122696	0	0.0037333	0.0019767	0.0004731
H	0.1530199	-1.5830494	-1.3473395	0	-0.0058367	-0.0007682	0.0018743
H	0.1395099	-1.2193795	1.5273794	0	-0.0003312	-0.0026168	0.0045229
H	1.8180093	-1.4537895	0.7891097	0	0.0003038	-0.0005391	0.0022253
H	-1.7837393	-0.6071097	-1.3387295	0	-0.0027248	0.0001856	0.0001476
H	-1.3877594	1.5527694	-0.1583099	0	0.0049463	0.0022424	-0.0029080
H	-2.7884889	0.7249897	0.5313398	0	-0.0052287	0.0017344	0.0012366
H	-1.2558195	0.7022397	1.4026295	0	0.0010493	-0.0051161	0.0030945
