14
Properties=species:S:1:pos:R:3:molID:I:1:forces_dft:R:3 Nmols=1 Comp=VC(1) energy_dft=-8369.780459348520 pbc="F F F"
O	-1.8759392	0.4924898	-0.5687498	0	-0.0045199	-0.0117867	-0.0039194
C	-1.4973094	-0.6466697	0.1205700	0	0.0063038	0.0058504	-0.0052916
C	-0.0316900	-0.8331097	0.1625599	0	0.0009037	0.0086336	-0.0053697
C	0.8808797	-0.2951099	-0.7633397	0	-0.0062107	0.0061139	-0.0006417
C	1.2195395	0.9706196	0.3572599	0	-0.0084028	-0.0011670	0.0044600
O	0.0844400	1.3059895	0.9463596	0	-0.0016430	-0.0033015	0.0015790
H	-1.3354895	1.1850995	-0.1207699	0	0.0068757	0.0009979	0.0064791
H	-1.8830493	-0.6729197	1.1474695	0	-0.0013865	-0.0001115	0.0030032
H	-1.8898992	-1.5445994	-0.3878599	0	-0.0000739	-0.0039911	0.0029821
H	0.3505099	-1.4837094	0.9474896	0	0.0025720	-0.0012671	0.0025931
H	1.7994293	-0.8515797	-0.9188597	0	0.0020649	-0.0011986	0.0004144
H	0.4368699	0.1478399	-1.6487894	0	-0.0038967	0.0000464	-0.0018059
H	1.7313193	1.7495393	-0.2406499	0	0.0007934	-0.0014189	-0.0087516
H	1.9745592	0.4703598	0.9875996	0	0.0031599	-0.0030564	0.0021906
