16
Properties=species:S:1:pos:R:3:molID:I:1:forces_dft:R:3 Nmols=1 Comp=VC(1) energy_dft=-7392.122357462643 pbc="F F F"
C	2.1400291	0.5623498	0.0962499	0	0.0002195	0.0027264	-0.0062556
C	0.8950997	-0.0127200	-0.5745597	0	-0.0019370	0.0021853	0.0037146
C	-0.1872899	-0.3805599	0.4023098	0	0.0044516	-0.0118207	0.0012441
C	-1.8000093	-0.7988797	-0.4582898	0	0.0092442	0.0059686	0.0084776
O	-2.5111190	0.2835099	-0.6571897	0	-0.0010634	0.0064974	0.0071315
C	-1.1310196	0.5545898	0.8184297	0	0.0018798	0.0040747	0.0031486
H	2.5648690	-0.1468399	0.8101897	0	-0.0001704	0.0008552	0.0006367
H	1.9027493	1.4788194	0.6416198	0	-0.0066626	0.0019596	-0.0026284
H	2.9105389	0.7996397	-0.6394098	0	-0.0007450	0.0023895	-0.0034849
H	1.1693096	-0.8994997	-1.1543496	0	0.0010293	-0.0038920	-0.0023793
H	0.4899498	0.7068597	-1.2926695	0	-0.0056678	-0.0003486	-0.0016563
H	-0.0246800	-1.2478195	1.0323696	0	-0.0027708	0.0027427	0.0020441
H	-2.1662691	-1.5379594	0.2760999	0	0.0030551	-0.0045755	0.0010925
H	-1.3761594	-1.3217195	-1.3391794	0	-0.0018226	-0.0023656	-0.0073066
H	-1.7703993	0.3615099	1.6700793	0	-0.0071146	-0.0016704	-0.0028588
H	-1.1192196	1.5738894	0.4591798	0	0.0027045	0.0029573	-0.0068662
