11
Properties=species:S:1:pos:R:3:molID:I:1:forces_dft:R:3 Nmols=1 Comp=VC(1) energy_dft=-7762.749762524484 pbc="F F F"
N	2.5905390	-0.3384099	0.8555997	0	-0.0093619	-0.0005019	-0.0031671
C	1.6185793	-0.6539097	0.3096899	0	0.0143895	0.0061424	0.0047790
C	0.3954298	-0.8829497	-0.3423498	0	-0.0082156	0.0051312	-0.0054106
C	-0.8428597	-0.6002998	0.4041098	0	-0.0042268	-0.0009875	-0.0111281
O	-1.3647994	0.7447697	-0.1053799	0	0.0085739	0.0084274	0.0131228
C	-0.3613998	1.4208895	-0.4910098	0	-0.0044396	-0.0045689	-0.0047119
H	0.3727899	-1.6491194	-1.1051795	0	-0.0012820	-0.0049501	-0.0014595
H	-0.7231097	-0.4786598	1.4797394	0	-0.0005791	-0.0009540	0.0059397
H	-1.6843393	-1.2543395	0.1904599	0	-0.0003650	-0.0056860	-0.0029997
H	0.6283497	1.3392095	-0.0634600	0	0.0023700	-0.0024225	0.0028622
H	-0.5994197	2.2878891	-1.1052596	0	-0.0007725	0.0013489	-0.0026237
