13
Properties=species:S:1:pos:R:3:molID:I:1:forces_dft:R:3 Nmols=1 Comp=VC(1) energy_dft=-10382.463823610422 pbc="F F F"
C	1.9164393	-0.0360900	-0.4538498	0	-0.0066451	0.0018127	0.0046604
O	0.9075097	0.5936998	0.3162399	0	-0.0080941	0.0029582	0.0167182
C	-0.2043699	-0.1830299	0.5505298	0	0.0097681	0.0044847	0.0003131
C	-1.2935795	0.4400998	1.1562096	0	0.0070315	-0.0042959	0.0213085
O	-2.3664691	0.4013699	-0.5754998	0	0.0154797	0.0050701	-0.0037940
C	-1.3082695	-0.1660899	-0.9034597	0	0.0009660	0.0046025	-0.0026952
O	-0.8141197	-0.6427998	-1.8672393	0	-0.0085102	0.0092412	-0.0238083
H	2.2252791	-0.9801996	0.0094400	0	0.0006131	-0.0015991	-0.0027389
H	2.7632589	0.6467198	-0.4650398	0	0.0024530	0.0012767	-0.0031109
H	1.5826594	-0.2284199	-1.4749294	0	-0.0056641	-0.0024487	-0.0104469
H	-0.0103500	-1.2317795	0.7741097	0	-0.0009109	-0.0028904	-0.0017861
H	-1.3254095	1.5166894	1.2588195	0	0.0000449	0.0056928	-0.0029481
H	-2.0472392	-0.1371999	1.6699993	0	-0.0023294	-0.0017772	-0.0010260
