14
Properties=species:S:1:pos:R:3:molID:I:1:forces_dft:R:3 Nmols=1 Comp=VC(1) energy_dft=-8365.634866795141 pbc="F F F"
C	1.9990692	-0.1317099	0.3661098	0	-0.0069918	0.0059019	0.0017335
O	0.8405897	0.5707698	0.7711897	0	0.0013702	0.0087700	0.0049325
C	-0.1073500	0.6847798	-0.2143599	0	0.0060770	0.0039494	-0.0009335
C	-1.0700496	-0.9227296	-0.3292399	0	-0.0005643	-0.0028342	0.0004297
O	-2.3835390	-0.7659197	-0.3524199	0	0.0008845	0.0019687	-0.0027178
C	-1.4304295	0.9156396	0.1417200	0	-0.0018333	-0.0032087	-0.0052541
H	1.7789293	-1.1779995	0.1329700	0	-0.0017317	-0.0052051	0.0018474
H	2.4558090	0.3408898	-0.5108998	0	-0.0013797	-0.0012974	-0.0042121
H	2.6991889	-0.0914200	1.1977995	0	0.0003077	0.0015606	0.0022911
H	0.2536199	0.9739496	-1.1979695	0	-0.0005382	-0.0013533	-0.0013202
H	-0.6158997	-1.3243795	0.5937398	0	0.0041220	-0.0013061	-0.0010667
H	-0.5938798	-1.3686695	-1.2227095	0	0.0015986	-0.0001494	-0.0038907
H	-1.7147793	0.9112097	1.1852395	0	-0.0015775	-0.0035835	0.0066496
H	-2.1088791	1.3826095	-0.5530998	0	-0.0015692	0.0019955	-0.0007472
