10
Properties=species:S:1:pos:R:3:molID:I:1:forces_dft:R:3 Nmols=1 Comp=VC(1) energy_dft=-6726.730239137839 pbc="F F F"
N	1.8080093	-0.5189698	0.4961698	0	-0.0034966	0.0048475	-0.0004224
C	0.8608197	0.2288299	0.1668399	0	0.0069357	0.0063550	0.0047330
C	-0.6135298	-0.7280797	-0.0728300	0	0.0105023	-0.0040124	0.0010462
C	-1.1717895	0.3882399	0.5480498	0	0.0097044	0.0026484	0.0015302
O	0.5811297	1.4418194	0.0142700	0	0.0016184	-0.0106729	0.0046912
H	2.6331590	0.0293500	0.7314297	0	-0.0027992	0.0026655	-0.0015842
H	-0.4506998	-1.6261593	0.5028898	0	-0.0033929	-0.0028342	-0.0000989
H	-0.7714097	-0.8527896	-1.1374296	0	-0.0041254	-0.0006691	-0.0037930
H	-1.1981295	0.4540898	1.6304094	0	-0.0012541	-0.0007204	0.0056266
H	-1.6728694	1.1759296	0.0054700	0	-0.0052953	0.0001976	-0.0031313
