13
Properties=species:S:1:pos:R:3:molID:I:1:forces_dft:R:3 Nmols=1 Comp=VC(1) energy_dft=-6322.495955201848 pbc="F F F"
C	1.6958594	-0.2711099	-0.0711500	0	-0.0062304	0.0077048	-0.0004573
C	0.4219398	0.5193498	-0.1647499	0	-0.0032397	-0.0016880	0.0031171
C	-1.0572396	-0.7447897	-0.1296700	0	0.0191992	0.0027566	-0.0038537
C	-1.5907694	0.4372399	0.3796798	0	0.0224333	0.0017230	-0.0058026
O	0.1514299	1.3665195	0.7819397	0	0.0029048	0.0080424	-0.0004116
H	2.5121490	0.4542398	-0.1559299	0	-0.0060625	0.0009143	-0.0008488
H	1.7730893	-0.7555897	0.9010996	0	-0.0153963	-0.0051066	0.0026427
H	1.7878893	-1.0073696	-0.8708197	0	-0.0053435	-0.0008222	-0.0018485
H	0.1929599	0.8140297	-1.2026795	0	-0.0009364	0.0014107	-0.0036547
H	-1.2095695	-1.0018796	-1.1686495	0	0.0004225	-0.0018804	-0.0054001
H	-0.8560397	-1.5601494	0.5535998	0	-0.0002022	-0.0023369	0.0009103
H	-1.8141993	0.5621298	1.4287894	0	-0.0060453	-0.0054334	0.0030230
H	-2.0177192	1.1825795	-0.2801999	0	-0.0054970	0.0005230	-0.0013974
