13
Properties=species:S:1:pos:R:3:molID:I:1:forces_dft:R:3 Nmols=1 Comp=VC(1) energy_dft=-7794.403820911728 pbc="F F F"
C	-1.0002296	-0.7124897	-0.7256497	0	0.0006490	0.0015439	-0.0043113
N	-0.9635496	-1.1271896	0.6503598	0	0.0033233	0.0071525	0.0033901
C	0.0896300	-0.1946799	0.1781899	0	-0.0113815	-0.0012979	-0.0035436
C	0.1865699	1.4085494	0.1856199	0	0.0048452	-0.0092788	0.0017166
O	1.1558795	1.6218793	-0.6768397	0	-0.0088729	0.0082581	-0.0086716
C	1.3927395	-0.6799097	0.1759099	0	0.0060997	-0.0027840	0.0004333
H	-0.7597597	-1.4842594	-1.4467794	0	0.0003100	0.0003750	-0.0013223
H	-1.7017993	0.0452300	-1.0578196	0	-0.0034200	0.0025231	0.0033749
H	-1.6171093	-0.5859898	1.2084795	0	-0.0010959	0.0032661	-0.0007991
H	0.3870298	1.7192193	1.2314295	0	-0.0000223	-0.0003158	0.0031011
H	-0.8218997	1.7762793	-0.0898800	0	-0.0055499	0.0004474	-0.0004288
H	2.2033691	0.0364900	0.1622900	0	0.0042890	0.0024550	-0.0009106
H	1.5825694	-1.7459793	0.2684899	0	-0.0015185	-0.0042568	-0.0004974
