14
Properties=species:S:1:pos:R:3:molID:I:1:forces_dft:R:3 Nmols=1 Comp=VC(1) energy_dft=-7355.130083724112 pbc="F F F"
C	-1.1150896	-1.0338396	-0.6430898	0	-0.0045795	0.0012534	-0.0006996
C	-1.5718594	0.4246098	-0.5856798	0	0.0067087	0.0076272	-0.0015607
C	-0.3506299	-0.0151600	0.0565700	0	0.0138725	0.0039221	0.0025796
C	0.5739298	0.2257999	1.0632896	0	-0.0037087	0.0037083	0.0046837
C	1.6908993	0.3215899	-0.3964098	0	-0.0013295	-0.0009100	-0.0074560
O	0.9999996	0.7645297	-1.4032995	0	-0.0061352	0.0062168	0.0010612
H	-0.7307097	-1.3711995	-1.5953494	0	0.0002829	0.0002256	-0.0055737
H	-1.6051194	-1.7881393	-0.0374800	0	-0.0018703	-0.0004846	-0.0040697
H	-2.3800991	0.7075197	0.0803900	0	-0.0011529	-0.0039545	0.0044226
H	-1.4708594	1.0024596	-1.4927194	0	-0.0027534	-0.0008039	-0.0034043
H	0.9227496	-0.6123498	1.6539793	0	0.0011307	-0.0016590	-0.0004312
H	0.5251398	1.1888695	1.5581994	0	0.0017846	0.0009061	-0.0001674
H	2.5362190	0.9321296	-0.0250100	0	-0.0024474	0.0003702	-0.0024854
H	1.9666392	-0.7486497	-0.3798299	0	0.0000214	-0.0037860	0.0022954
