12
Properties=species:S:1:pos:R:3:molID:I:1:forces_dft:R:3 Nmols=1 Comp=VC(1) energy_dft=-8233.186001625223 pbc="F F F"
N	1.6609193	-0.2850999	0.3177899	0	-0.0027476	0.0055240	-0.0055120
C	0.5906297	-0.0778000	-0.5857098	0	0.0058788	-0.0037878	0.0080620
C	-0.4334298	-1.0255396	-0.7589297	0	0.0088994	0.0131586	0.0108903
O	-1.8206293	0.5089798	-0.5879698	0	0.0000700	0.0063462	-0.0053645
C	-0.7866397	0.7295397	0.1097299	0	0.0027510	0.0153548	0.0121027
N	-0.4724898	1.3005295	1.1827995	0	-0.0017467	-0.0019873	-0.0164472
H	1.8060893	0.5728898	0.8402697	0	-0.0022335	-0.0019120	0.0010964
H	1.4327494	-0.9947496	1.0021196	0	0.0001104	-0.0043479	0.0022597
H	0.8553596	0.5008098	-1.4671794	0	0.0023419	-0.0045822	-0.0051144
H	-0.9350596	-1.1984395	-1.6973494	0	-0.0011981	-0.0088571	-0.0013478
H	-0.6332798	-1.7352493	0.0388500	0	0.0006274	-0.0046935	0.0041133
H	-1.2845595	1.7238393	1.6250793	0	-0.0043072	-0.0014794	-0.0034064
