16
Properties=species:S:1:pos:R:3:molID:I:1:forces_dft:R:3 Nmols=1 Comp=VC(1) energy_dft=-7389.106045437648 pbc="F F F"
C	-1.1107096	-1.2187595	0.0131100	0	-0.0001074	-0.0027596	-0.0098677
C	-0.4172298	0.0424500	0.3321899	0	-0.0051414	-0.0054805	0.0079900
C	-1.0832496	1.3348395	0.1804699	0	0.0035047	0.0018585	0.0023054
C	0.9227296	0.0038300	0.8519997	0	-0.0038055	0.0019845	-0.0043195
C	1.6098494	-0.1295699	-0.6623997	0	-0.0047542	0.0028176	-0.0023205
O	0.8729696	0.5635498	-1.5086994	0	0.0061727	-0.0040798	-0.0118513
H	-1.8751293	-1.0794896	-0.7483597	0	-0.0004273	0.0023941	-0.0038027
H	-1.5958494	-1.5689394	0.9329196	0	-0.0025816	-0.0004616	0.0011288
H	-0.3986398	-1.9888692	-0.2893399	0	0.0029852	-0.0025812	0.0020581
H	-0.4180898	1.8478493	-0.5400098	0	0.0011195	-0.0014049	-0.0012954
H	-1.0613896	1.8992493	1.1151496	0	-0.0030605	-0.0013836	0.0014381
H	-2.0930392	1.2672095	-0.2186199	0	-0.0033840	-0.0001119	-0.0048281
H	1.1711796	-0.8749497	1.4432394	0	-0.0019265	-0.0012544	0.0028514
H	1.2414995	0.9326696	1.3188795	0	0.0011315	0.0004413	-0.0002088
H	1.5614294	-1.2339095	-0.7815897	0	0.0019986	-0.0070390	0.0006890
H	2.6821789	0.1431699	-0.5930798	0	0.0052314	-0.0042623	0.0046380
