15
Properties=species:S:1:pos:R:3:molID:I:1:forces_dft:R:3 Nmols=1 Comp=VC(1) energy_dft=-9405.052384306318 pbc="F F F"
C	-0.6926997	1.3513095	-0.2006599	0	0.0035712	0.0014439	-0.0030438
C	-0.2150299	0.1033100	0.4817598	0	0.0187220	-0.0002322	-0.0020467
C	-1.2492795	-0.9255996	0.8153697	0	0.0051163	0.0013887	-0.0026019
C	1.2751895	-0.8119697	-0.9830696	0	-0.0019390	-0.0036335	-0.0012646
C	1.8659793	0.1948699	-0.2372799	0	0.0146685	0.0135790	0.0068311
O	2.5880690	1.1165796	-0.2854999	0	-0.0225740	0.0024305	-0.0010161
O	0.8806396	0.0927000	1.1443195	0	-0.0064657	0.0001075	0.0006831
H	0.1342099	1.9889892	-0.5047598	0	-0.0003808	-0.0006028	-0.0037022
H	-1.3269995	1.1197695	-1.0542596	0	-0.0056602	0.0006508	-0.0010263
H	-1.2948495	1.9043093	0.5293998	0	-0.0039001	0.0015478	-0.0003758
H	-0.7837197	-1.8409993	1.1737096	0	-0.0013855	-0.0017873	0.0012047
H	-1.8716893	-0.5210798	1.6205894	0	-0.0011498	0.0023105	0.0022143
H	-1.8983893	-1.1321196	-0.0344400	0	-0.0078999	-0.0038028	-0.0032527
H	0.9408696	-1.6983593	-0.4711998	0	-0.0046746	-0.0021573	-0.0032356
H	1.6477193	-0.9416996	-1.9939992	0	-0.0069820	-0.0020513	-0.0046534
