13
Properties=species:S:1:pos:R:3:molID:I:1:forces_dft:R:3 Nmols=1 Comp=VC(1) energy_dft=-6322.231042963597 pbc="F F F"
C	-1.2943495	-0.8948996	-0.0175600	0	-0.0029379	0.0016222	0.0033430
C	-0.0369800	-0.3249099	0.5726898	0	-0.0024768	0.0088140	-0.0016386
C	1.1892695	-0.4454398	-0.0754600	0	0.0023606	0.0052977	0.0083735
O	1.1032696	1.2103395	-1.2514595	0	0.0046409	-0.0008359	-0.0057820
C	0.3856499	1.3482195	-0.1628299	0	0.0084485	-0.0040369	0.0016912
H	-2.1682291	-0.3208999	0.2973799	0	-0.0030996	-0.0021690	0.0000119
H	-1.4551694	-1.9320092	0.2882899	0	-0.0020604	-0.0059404	0.0017705
H	-1.2535295	-0.8664797	-1.1084395	0	-0.0009473	-0.0032450	-0.0057993
H	-0.0262000	-0.1159499	1.6356893	0	0.0025837	-0.0012015	0.0040892
H	1.2864595	-0.9679696	-1.0161096	0	-0.0049850	-0.0031054	-0.0025892
H	2.1145392	-0.2266699	0.4415198	0	0.0030528	0.0016230	0.0016501
H	0.8698297	1.7828293	0.7296297	0	0.0023784	-0.0032595	0.0017812
H	-0.6476997	1.7379993	-0.2570799	0	-0.0050679	-0.0030072	0.0002490
