11
Properties=species:S:1:pos:R:3:molID:I:1:forces_dft:R:3 Nmols=1 Comp=VC(1) energy_dft=-8773.337241426339 pbc="F F F"
O	0.1683299	2.0004292	0.7980197	0	0.0095172	0.0084963	-0.0043120
C	0.3588698	0.8679297	0.0691100	0	0.0046487	-0.0010114	0.0077206
C	0.9923196	-1.2018995	0.0322700	0	-0.0091428	0.0162665	-0.0019731
O	0.3872498	-1.2183895	-1.0748596	0	-0.0102429	0.0117122	0.0251405
C	-0.7494697	0.1207699	-0.3075099	0	0.0099750	-0.0068917	-0.0027334
N	-1.8758893	-0.2022399	0.0407300	0	-0.0125472	-0.0044667	-0.0001402
H	-0.5894498	1.8799392	1.3779995	0	-0.0005152	-0.0036030	-0.0017396
H	1.2153695	0.9339196	-0.5778098	0	0.0007940	-0.0022705	-0.0026781
H	2.0817592	-1.0871396	0.0644900	0	0.0005165	-0.0056144	-0.0008574
H	0.5216298	-1.6078094	0.9364196	0	-0.0053003	-0.0024886	0.0027867
H	-2.5473990	-0.5033098	-0.6511098	0	-0.0059821	-0.0030198	-0.0034097
