17
Properties=species:S:1:pos:R:3:molID:I:1:forces_dft:R:3 Nmols=1 Comp=VC(1) energy_dft=-9439.844158430546 pbc="F F F"
C	-2.0646192	-0.5958398	0.3736799	0	0.0005300	-0.0053870	-0.0011362
C	-1.1104796	0.2859999	-0.4240599	0	-0.0000870	0.0034346	0.0009822
O	-0.9388696	1.5486194	0.1341800	0	0.0016036	-0.0000633	-0.0083788
C	0.1962899	-0.3649099	-0.6905797	0	0.0085723	0.0103148	0.0074951
C	1.4102094	0.3079299	-0.9136897	0	0.0003622	-0.0133340	-0.0008443
C	1.8571693	-0.0222000	0.7192697	0	-0.0046849	-0.0020597	0.0016478
O	0.7820697	0.1294699	1.4733594	0	0.0050093	0.0041928	0.0025417
H	-3.0207488	-0.0842600	0.4729998	0	-0.0031649	0.0010322	-0.0025929
H	-2.2316791	-1.5545494	-0.1236099	0	-0.0006510	-0.0020131	-0.0038983
H	-1.6435094	-0.7704597	1.3635995	0	-0.0046463	-0.0056077	0.0028712
H	-1.5221394	0.4108198	-1.4451094	0	-0.0000838	0.0025358	-0.0008067
H	-0.3248999	1.3594095	0.8843296	0	0.0060289	-0.0092896	0.0033081
H	0.1909199	-1.4507994	-0.7753497	0	-0.0002139	-0.0042821	-0.0015110
H	2.1312191	-0.1908499	-1.5536894	0	-0.0000569	-0.0028010	-0.0021125
H	1.3316395	1.3837194	-1.0311696	0	-0.0038364	0.0065982	0.0002950
H	2.7137589	0.6511998	0.9162997	0	0.0007615	0.0002790	-0.0047911
H	2.2465891	-1.0490296	0.6118997	0	-0.0000420	-0.0049213	-0.0026741
