13
Properties=species:S:1:pos:R:3:molID:I:1:forces_dft:R:3 Nmols=1 Comp=VC(1) energy_dft=-10381.853129051504 pbc="F F F"
C	1.9480592	0.2387099	-0.6207598	0	-0.0088009	-0.0085491	0.0103883
O	1.4011795	-0.6162997	0.3686998	0	0.0034546	-0.0024448	-0.0078227
C	0.0474900	-0.5592198	0.5070098	0	0.0061958	0.0045683	0.0015553
C	-1.9164093	0.5855497	0.7548197	0	0.0045246	-0.0067245	-0.0059257
O	-2.3779191	-0.5078598	0.3714799	0	0.0118367	0.0094357	-0.0073551
C	-0.7338797	-0.7838097	-0.6228097	0	-0.0050385	0.0032431	0.0002341
O	-0.8759897	-0.7630197	-1.7730393	0	0.0017417	0.0017179	0.0061151
H	1.6500994	-0.0691999	-1.6274994	0	-0.0057146	-0.0040012	-0.0048646
H	3.0294788	0.1661399	-0.5285798	0	0.0038497	-0.0009866	-0.0000039
H	1.6311094	1.2720995	-0.4518898	0	-0.0053454	0.0021145	-0.0015740
H	-0.3018699	-0.9294896	1.4555394	0	-0.0039317	-0.0036166	0.0024850
H	-1.7391193	1.4105995	0.0536400	0	-0.0016269	0.0005537	-0.0019596
H	-1.8948893	0.8429696	1.8215493	0	-0.0036478	-0.0030422	0.0033229
