16
Properties=species:S:1:pos:R:3:molID:I:1:forces_dft:R:3 Nmols=1 Comp=VC(1) energy_dft=-7392.505149033685 pbc="F F F"
C	-1.5226294	0.6913497	0.0362600	0	0.0006453	0.0063911	0.0159888
C	-0.4886498	-0.0801400	0.8151597	0	0.0000290	0.0035929	-0.0047842
C	-0.1484899	-1.6845694	0.0463100	0	0.0091040	0.0072015	-0.0045587
O	0.7436097	-1.5029394	-0.8877597	0	-0.0052405	0.0049561	0.0054685
C	0.8839296	0.0922699	0.5678298	0	0.0006558	0.0206919	0.0003186
C	1.4633294	1.0086596	-0.4245498	0	0.0038177	-0.0007588	0.0095669
H	-1.4962294	1.7637493	0.2473799	0	-0.0002439	0.0001790	-0.0009008
H	-2.5217290	0.3311599	0.2832399	0	-0.0052456	-0.0017741	-0.0009214
H	-1.3800395	0.5530998	-1.0375796	0	0.0002640	-0.0049933	-0.0052963
H	-0.7485497	-0.3422899	1.8360693	0	-0.0009923	-0.0007687	0.0040336
H	-1.1589795	-2.0351192	-0.2558699	0	-0.0110863	-0.0046018	-0.0054185
H	0.1556700	-2.2196991	0.9648796	0	0.0090078	-0.0012456	0.0028961
H	1.5726594	-0.3796198	1.2618295	0	0.0019129	-0.0045722	0.0008261
H	2.4732890	0.7176697	-0.6994697	0	0.0026178	-0.0045287	0.0001590
H	1.4850694	2.0035092	0.0431900	0	0.0017051	0.0001341	0.0027497
H	0.8393397	1.0658896	-1.3131795	0	0.0001499	0.0007678	-0.0054068
