11
Properties=species:S:1:pos:R:3:molID:I:1:forces_dft:R:3 Nmols=1 Comp=VC(1) energy_dft=-6285.360167804950 pbc="F F F"
C	-1.3707395	-0.4538298	0.0029400	0	0.0051089	0.0012481	-0.0027534
C	-0.3064999	-0.1387499	1.0156896	0	0.0039548	0.0061514	-0.0016735
C	1.7349293	-0.1466999	-0.4270598	0	-0.0058882	-0.0062239	-0.0040294
O	0.7528897	0.1761600	-1.1477696	0	0.0121539	0.0042417	0.0071801
C	-0.3765299	0.6175598	-0.2083299	0	-0.0029147	-0.0116212	0.0002047
H	-2.3997491	-0.1121000	0.0998699	0	-0.0032715	0.0024274	-0.0022071
H	-1.2808195	-1.3785695	-0.5660598	0	-0.0037373	-0.0007269	0.0003423
H	-0.5105898	0.2905899	1.9883692	0	-0.0005415	0.0012262	0.0029821
H	2.5509290	-0.6570198	-0.9353196	0	0.0012042	0.0000044	-0.0024553
H	1.7994693	0.1507699	0.6089197	0	-0.0000452	-0.0009622	0.0041987
H	-0.6001098	1.6529093	-0.4287798	0	-0.0012189	0.0043097	0.0023114
