12
Properties=species:S:1:pos:R:3:molID:I:1:forces_dft:R:3 Nmols=1 Comp=VC(1) energy_dft=-8336.091203216183 pbc="F F F"
C	1.3809595	-0.2998599	-0.0046300	0	-0.0045321	0.0002948	0.0127104
C	-0.0350700	-0.1697399	0.4969898	0	-0.0050185	-0.0063222	-0.0040956
C	-0.7498997	1.0219496	0.3969498	0	0.0094625	0.0118567	0.0099372
O	-1.9584792	0.2193099	-1.0511896	0	-0.0048687	-0.0193878	-0.0125628
C	-1.1662895	-0.7125597	-0.8309497	0	0.0022365	0.0038689	0.0000575
O	-0.9212296	-1.7987293	-1.2247895	0	0.0028738	0.0077721	0.0053192
H	2.1023492	-0.0561600	0.7775697	0	-0.0013814	-0.0023780	-0.0006283
H	1.5653894	-1.3237095	-0.3315199	0	0.0012741	-0.0060679	0.0018710
H	1.5634694	0.3605099	-0.8548797	0	-0.0025100	0.0027287	-0.0018274
H	-0.3002699	-0.8123097	1.3319395	0	-0.0031758	-0.0039148	-0.0017958
H	-0.4032099	1.8346793	-0.2301099	0	-0.0011241	-0.0002955	-0.0024413
H	-1.5982194	1.2380295	1.0318996	0	-0.0020993	-0.0019727	0.0020246
