12
Properties=species:S:1:pos:R:3:molID:I:1:forces_dft:R:3 Nmols=1 Comp=VC(1) energy_dft=-7321.966030735935 pbc="F F F"
C	2.3617191	-0.4850898	-0.3942998	0	-0.0069301	0.0014555	0.0051630
C	1.4271295	-0.1849300	0.3159499	0	0.0165850	-0.0022046	-0.0017198
C	0.2285999	0.0987899	0.9854396	0	-0.0104833	0.0117366	0.0007415
C	-1.2518395	-0.8419997	-0.7256997	0	0.0020967	0.0041137	-0.0002884
O	-1.7377293	0.2953299	-0.4180398	0	-0.0162134	-0.0066933	-0.0026727
C	-0.6897997	1.0716896	0.3784898	0	0.0029029	-0.0033367	-0.0023113
H	3.2503287	-0.6613798	-0.9515696	0	0.0023993	0.0012977	-0.0019069
H	0.1790800	-0.0525500	2.0556792	0	-0.0044075	-0.0022612	0.0028594
H	-0.1968799	-1.0395996	-0.8616797	0	0.0016093	-0.0042933	-0.0002222
H	-1.9826992	-1.5537694	-1.1065695	0	-0.0032981	-0.0006833	-0.0017110
H	-1.3177195	1.6266293	1.0718796	0	-0.0018079	-0.0005684	-0.0009935
H	-0.2356899	1.7500293	-0.3428799	0	0.0020478	-0.0002152	-0.0008363
