12
Properties=species:S:1:pos:R:3:molID:I:1:forces_dft:R:3 Nmols=1 Comp=VC(1) energy_dft=-9808.090084754076 pbc="F F F"
N	0.5223398	1.3999094	0.9076196	0	-0.0145845	-0.0010020	0.0017828
C	-0.0128500	0.3427598	0.1686199	0	0.0089656	0.0003729	0.0003218
C	-1.3051995	0.1424500	-0.5851398	0	-0.0029488	-0.0060174	0.0024884
C	-0.7410597	-0.7839297	0.4035398	0	0.0249172	0.0060898	0.0041940
O	0.5197498	-1.8881293	-0.8614397	0	0.0027587	-0.0065059	0.0011557
C	1.1218196	-0.8318597	-0.6206797	0	0.0066959	-0.0011466	-0.0005690
O	2.2167491	-0.3776199	-0.6769997	0	-0.0187946	-0.0056206	-0.0026486
H	1.1742695	1.9246292	0.3389199	0	-0.0010966	-0.0044829	-0.0017208
H	1.0192496	1.0679896	1.7229593	0	-0.0040361	-0.0027193	0.0010780
H	-2.2032691	0.6528397	-0.2374399	0	-0.0026091	0.0020279	0.0002205
H	-1.2811595	-0.0865500	-1.6441393	0	0.0003145	-0.0004946	-0.0063067
H	-1.0101696	-1.5698194	1.0896696	0	-0.0014247	-0.0000184	-0.0027442
