15
Properties=species:S:1:pos:R:3:molID:I:1:forces_dft:R:3 Nmols=1 Comp=VC(1) energy_dft=-8392.937261711790 pbc="F F F"
C	-1.3568895	-0.5665098	-0.7106497	0	0.0040036	-0.0014162	-0.0003156
O	-1.5181294	-1.7985693	-0.3095399	0	-0.0069548	0.0055171	0.0004714
C	0.1573799	-0.8468297	0.9437496	0	0.0062748	0.0049351	0.0046810
C	1.4099795	-0.6863497	0.3188199	0	0.0007073	0.0031390	0.0068273
C	1.4230295	0.5093198	-0.3308599	0	-0.0011864	-0.0027500	0.0053940
C	0.2225299	1.3241395	0.0050900	0	0.0116459	-0.0003957	0.0077113
C	-0.7068197	0.2579499	0.5583698	0	0.0068215	0.0012455	-0.0035768
H	-0.5051398	-0.3777099	-1.4278795	0	-0.0005468	0.0040397	-0.0020116
H	-2.2495091	-0.0754700	-1.1547396	0	-0.0067518	-0.0002693	-0.0027436
H	-0.1093000	-1.6454594	1.6156694	0	-0.0042703	-0.0035553	-0.0010738
H	2.1941591	-1.4288895	0.2970599	0	0.0010256	-0.0033837	-0.0014977
H	2.2277591	0.8586197	-0.9665496	0	0.0004257	-0.0037592	0.0021224
H	0.4864198	2.0691892	0.7650397	0	-0.0020205	-0.0024059	-0.0003134
H	-0.1874900	1.8633093	-0.8516797	0	-0.0012426	-0.0018342	-0.0027575
H	-1.4893794	0.5460298	1.2546195	0	-0.0047558	-0.0062259	-0.0007361
