14
Properties=species:S:1:pos:R:3:molID:I:1:forces_dft:R:3 Nmols=1 Comp=VC(1) energy_dft=-7358.215148886577 pbc="F F F"
C	-1.0300696	0.8140297	-0.4788898	0	0.0055071	0.0055776	0.0009372
C	-1.3926294	-0.2573299	0.4458098	0	0.0038987	-0.0085552	-0.0029807
C	0.0541800	-0.2254499	-0.0531700	0	0.0052487	0.0064893	0.0078664
C	0.5483098	-1.2029095	-0.8696996	0	-0.0021983	-0.0098966	-0.0007190
O	2.3794990	0.4236398	-0.0110800	0	-0.0006586	-0.0119074	-0.0082915
C	1.3191095	0.5484398	0.7056497	0	-0.0029384	-0.0009020	0.0000589
H	-1.3397395	0.7452097	-1.5121694	0	-0.0017315	0.0002311	-0.0040014
H	-0.8517596	1.8148993	-0.1096100	0	0.0021240	0.0027320	-0.0014715
H	-1.4841094	0.0013100	1.4943494	0	-0.0042341	-0.0002655	0.0037064
H	-2.0308392	-1.0643996	0.1093999	0	-0.0023987	0.0004522	-0.0024988
H	-0.0570700	-2.0183692	-1.2539695	0	-0.0011485	-0.0009704	0.0012431
H	1.6220894	-1.1566095	-1.0532696	0	0.0069978	0.0020435	-0.0005456
H	1.2951295	-0.0057200	1.6754094	0	-0.0007785	0.0020188	0.0012631
H	0.9610196	1.5812394	0.9068596	0	-0.0016481	0.0037055	-0.0050994
