19
Properties=species:S:1:pos:R:3:molID:I:1:forces_dft:R:3 Nmols=1 Comp=VC(1) energy_dft=-8462.011272741804 pbc="F F F"
C	2.7762089	0.2656599	0.2572899	0	0.0007098	-0.0069986	0.0104402
C	1.4441894	-0.4518898	0.4226399	0	-0.0045561	0.0095870	0.0032518
C	0.2715799	0.5103298	0.5788098	0	0.0036000	-0.0065271	0.0026902
C	-1.0508496	-0.1966999	0.7202997	0	0.0034071	-0.0064290	0.0046336
C	-1.8093193	-0.6161897	-0.9468696	0	-0.0021405	0.0077732	-0.0010966
O	-2.4912890	0.4053899	-1.4005594	0	0.0004692	-0.0019110	-0.0066111
C	-2.2515891	0.4993798	0.6238597	0	0.0023513	0.0028190	0.0070752
H	2.7723389	0.8985596	-0.6332598	0	-0.0011161	-0.0002951	-0.0021691
H	2.9880788	0.9065196	1.1167696	0	-0.0025580	0.0063585	0.0017062
H	3.6008786	-0.4418398	0.1582400	0	0.0029793	-0.0004298	0.0017341
H	1.4853594	-1.1094696	1.2974895	0	0.0010576	-0.0003102	-0.0017181
H	1.2675395	-1.1028396	-0.4396398	0	0.0008725	-0.0018616	-0.0065305
H	0.2214599	1.1765996	-0.2903299	0	-0.0019858	-0.0018565	-0.0037167
H	0.4515798	1.1550096	1.4476194	0	-0.0027773	0.0016080	-0.0028312
H	-1.0599896	-1.1566995	1.2249195	0	0.0028238	-0.0016972	-0.0001947
H	-2.3615291	-1.5200994	-0.6343598	0	0.0025843	-0.0029137	-0.0005862
H	-0.8830996	-0.9106696	-1.4800994	0	0.0056737	-0.0026726	0.0007867
H	-2.2802291	1.5673094	0.4601098	0	0.0014513	0.0016520	-0.0021157
H	-3.1852188	0.0437700	0.9281096	0	-0.0038354	-0.0027216	0.0011604
