13
Properties=species:S:1:pos:R:3:molID:I:1:forces_dft:R:3 Nmols=1 Comp=VC(1) energy_dft=-8360.358946795683 pbc="F F F"
C	2.7807289	1.2515995	0.3490499	0	-0.0097088	-0.0030007	-0.0048916
C	1.7017993	0.7600397	0.1350899	0	0.0149757	-0.0006550	0.0036018
C	0.4688398	0.1455199	-0.1577799	0	-0.0081331	0.0041759	0.0014225
C	-0.7988397	0.8907696	-0.2948699	0	-0.0008736	-0.0140730	-0.0064665
C	-0.6101598	-0.1174199	0.8053697	0	0.0067510	-0.0038199	-0.0035359
O	-1.1729296	-1.4155894	0.6104898	0	0.0048737	0.0035067	-0.0044988
C	-1.0357796	-1.8217293	-0.5941698	0	-0.0024188	0.0016658	-0.0019657
H	3.7373185	1.6783094	0.5332298	0	0.0029987	-0.0001919	0.0026944
H	-1.5307294	0.5700598	-1.0474896	0	-0.0034073	-0.0022278	-0.0045543
H	-0.8687897	1.9488592	-0.0586200	0	-0.0022020	0.0035064	-0.0052776
H	-0.6434598	0.1288299	1.8572293	0	-0.0019536	-0.0040027	0.0051081
H	-1.2617895	-2.8711989	-0.7464297	0	-0.0024151	-0.0030434	0.0002087
H	-0.8380597	-1.1587696	-1.4181894	0	0.0018992	0.0102956	0.0031664
