15
Properties=species:S:1:pos:R:3:molID:I:1:forces_dft:R:3 Nmols=1 Comp=VC(1) energy_dft=-9300.289227893276 pbc="F F F"
C	1.7534393	0.1502200	0.5061098	0	-0.0040164	0.0005508	-0.0070562
C	0.8827297	-0.0425800	-0.6541398	0	0.0137098	0.0021719	0.0138438
O	-0.2109599	-2.0023192	-0.6682697	0	0.0165861	0.0187032	-0.0027845
C	-0.9175596	-1.1120196	-0.1425300	0	0.0077645	0.0044364	0.0027947
N	-1.8344893	-1.0061696	0.7188997	0	0.0073884	-0.0002500	-0.0177695
C	-0.4573098	0.4322798	-0.7009397	0	-0.0110570	-0.0070691	0.0015472
N	-0.8392896	1.4531894	0.2240799	0	0.0126063	0.0042597	-0.0074268
H	1.1872795	0.4321998	1.3905895	0	-0.0037166	0.0041304	-0.0006325
H	2.4110791	0.9914796	0.2472399	0	0.0025926	-0.0022436	-0.0026894
H	2.3875190	-0.7192097	0.6723298	0	0.0029528	-0.0045169	-0.0004818
H	1.2997295	-0.5291998	-1.5252894	0	-0.0043428	-0.0010832	-0.0037248
H	-2.0550592	-1.9053293	1.1360296	0	-0.0057532	-0.0019700	0.0022533
H	-0.8801197	0.4753798	-1.7055993	0	-0.0024209	-0.0054042	-0.0014800
H	-1.1435195	2.2866891	-0.2564599	0	-0.0045705	0.0008597	-0.0012334
H	-1.6034094	1.0848196	0.7861297	0	-0.0030986	-0.0021332	0.0005451
