14
Properties=species:S:1:pos:R:3:molID:I:1:forces_dft:R:3 Nmols=1 Comp=VC(1) energy_dft=-8365.764666556302 pbc="F F F"
O	1.5090194	0.0714400	-0.8461197	0	0.0016011	0.0001833	-0.0029098
C	1.3162195	-0.0092400	0.4789298	0	-0.0022761	0.0039002	-0.0022788
C	-0.2446699	0.2012899	0.7418497	0	0.0033337	-0.0028179	-0.0060722
C	-0.6504298	1.3148295	-0.0597400	0	-0.0034086	0.0097512	0.0133913
O	-0.8298397	-0.5244798	-1.4233694	0	-0.0045157	-0.0022857	0.0044913
C	-0.9489796	-0.9306396	-0.0807600	0	0.0083308	0.0069194	-0.0095201
H	0.1876899	-0.3387198	-1.4750994	0	0.0052314	-0.0004129	-0.0020004
H	1.8587792	0.7549097	1.0651996	0	0.0007051	-0.0011688	0.0027888
H	1.5533794	-0.9910496	0.9310996	0	0.0009391	-0.0038629	0.0001098
H	-0.6280298	0.2240299	1.7655193	0	-0.0000389	-0.0007182	0.0016999
H	-1.5936494	1.8321493	0.0971800	0	-0.0038196	0.0014870	0.0025803
H	0.0447900	1.6879893	-0.8055897	0	-0.0057696	0.0010865	-0.0015878
H	-2.0022792	-0.9685896	0.1990299	0	-0.0053342	-0.0022987	0.0014513
H	-0.4889898	-1.9075693	0.1075999	0	-0.0007460	-0.0064866	-0.0029640
