11
Properties=species:S:1:pos:R:3:molID:I:1:forces_dft:R:3 Nmols=1 Comp=VC(1) energy_dft=-8772.182365661918 pbc="F F F"
N	1.8780593	-0.2614699	-0.0852699	0	-0.0014785	-0.0035559	0.0020901
C	0.5151398	-0.0793600	-0.3463798	0	-0.0055368	-0.0026224	0.0026741
C	-1.6797293	-0.5566398	0.1992099	0	-0.0009296	0.0066242	-0.0072810
O	-1.8432293	0.5117498	-0.4280398	0	0.0211295	0.0178534	0.0203922
C	-0.1173200	1.0643096	0.1175199	0	0.0050902	0.0009959	0.0027707
O	-0.1225599	1.9621992	0.8597396	0	-0.0053412	0.0199792	-0.0196259
H	2.2164091	0.2138599	0.7356097	0	-0.0008170	0.0032292	0.0032217
H	2.4959690	-0.1240099	-0.8707896	0	-0.0028235	0.0022577	-0.0033437
H	0.1162100	-0.5780998	-1.2118595	0	-0.0004354	-0.0019880	-0.0035240
H	-1.8651293	-1.5235294	-0.2852399	0	-0.0037263	-0.0065931	0.0000034
H	-1.5731994	-0.5715598	1.2902795	0	-0.0020057	0.0002230	0.0050940
