15
Properties=species:S:1:pos:R:3:molID:I:1:forces_dft:R:3 Nmols=1 Comp=VC(1) energy_dft=-9401.773445006322 pbc="F F F"
C	-1.4593394	1.1464395	-0.2987099	0	0.0073180	-0.0030802	0.0045256
C	-0.2131899	0.3465299	-0.3346898	0	-0.0038651	0.0008997	0.0104268
C	0.1499699	-0.4220198	1.3195395	0	-0.0004420	0.0081244	-0.0040447
O	1.3402195	-1.0066096	1.3555894	0	-0.0111624	-0.0104665	0.0050257
C	1.1347295	0.3487399	-0.0994300	0	0.0027990	-0.0001560	0.0064256
C	0.6290197	-0.5449598	-1.1717895	0	0.0051987	-0.0042972	-0.0003661
O	0.6595498	-1.9201792	-1.0653296	0	-0.0039023	-0.0037141	0.0052466
H	-1.3905595	1.9519492	0.4339198	0	0.0010862	0.0013055	-0.0007062
H	-1.6502294	1.5895594	-1.2775495	0	-0.0035951	0.0002840	-0.0041117
H	-2.3164691	0.5172298	-0.0458800	0	-0.0009332	-0.0055967	0.0021106
H	-0.7467197	-1.0679096	1.3236495	0	0.0001288	0.0015924	-0.0045055
H	-0.0108400	0.4541398	1.9664693	0	0.0007912	0.0018346	0.0037661
H	1.9824792	0.9212796	0.2424099	0	0.0007037	-0.0018300	0.0026868
H	0.8729596	-0.2022399	-2.1758491	0	0.0006755	0.0016845	-0.0050523
H	1.0243796	-2.0915592	-0.1760799	0	-0.0016208	0.0050679	-0.0005550
