11
Properties=species:S:1:pos:R:3:molID:I:1:forces_dft:R:3 Nmols=1 Comp=VC(1) energy_dft=-8772.744483165221 pbc="F F F"
N	1.5519794	-0.3855598	0.1061799	0	-0.0065665	-0.0014745	-0.0048187
C	0.2406699	-0.3709098	-0.4530098	0	0.0080837	0.0008430	-0.0038501
C	-0.8635497	-0.8693897	0.2399299	0	0.0096299	0.0219608	0.0007609
O	-1.6876193	0.9897996	0.3938098	0	-0.0194220	0.0076986	-0.0001885
C	-0.5898198	1.2023895	-0.1632099	0	0.0045204	0.0140502	0.0000875
O	0.0675800	2.1321292	-0.4909598	0	-0.0190425	-0.0272845	0.0008296
H	1.5330094	-0.3149699	1.1154396	0	-0.0040983	-0.0011296	0.0096207
H	2.0774692	0.4069698	-0.2417399	0	-0.0031670	-0.0030478	0.0002752
H	0.2320499	-0.4989798	-1.5313294	0	0.0038966	-0.0011694	-0.0031783
H	-1.7376493	-1.2304695	-0.2807099	0	0.0016150	-0.0065386	-0.0010127
H	-0.8241297	-1.0609996	1.3055895	0	0.0036559	-0.0061035	0.0028113
