9
Properties=species:S:1:pos:R:3:molID:I:1:forces_dft:R:3 Nmols=1 Comp=VC(1) energy_dft=-7266.892572077574 pbc="F F F"
O	2.1114591	-0.2836599	-0.7512197	0	0.0110485	-0.0077197	0.0079997
C	1.0156796	-0.5869897	-0.4465598	0	0.0021856	0.0011588	-0.0043302
C	-0.0004900	0.8326897	0.1479900	0	0.0099951	0.0006162	-0.0030993
C	-0.9859096	-0.1356500	0.3074399	0	0.0009125	-0.0000628	-0.0020731
O	0.2735599	-1.5795294	-0.3837398	0	0.0018058	0.0021169	0.0044323
H	-0.0626400	1.5116394	-0.6926997	0	-0.0000452	0.0008102	0.0010614
H	0.5153098	1.2052395	1.0235796	0	0.0003691	-0.0001998	0.0033665
H	-1.7250093	-0.3278799	-0.4588798	0	-0.0009868	-0.0008955	-0.0021772
H	-1.1419496	-0.6358498	1.2540895	0	0.0000807	-0.0004981	0.0037531
