16
Properties=species:S:1:pos:R:3:molID:I:1:forces_dft:R:3 Nmols=1 Comp=VC(1) energy_dft=-7392.460980262174 pbc="F F F"
C	-1.5659794	0.6325098	-0.3163299	0	0.0079580	0.0060772	-0.0073184
C	-0.7898397	-0.1658699	0.6945697	0	0.0231886	0.0057429	0.0008139
C	-0.5902098	-1.5325894	0.5097298	0	0.0314493	0.0133094	0.0041593
O	1.1451096	-1.4012594	-0.5321498	0	0.0039780	-0.0032468	0.0049568
C	1.0839295	-0.3645998	0.2557299	0	-0.0110851	-0.0055047	-0.0056433
C	1.5514694	0.9597596	-0.2824299	0	-0.0052128	-0.0039719	0.0079471
H	-1.3274295	1.6954693	-0.2506199	0	-0.0054825	0.0030172	-0.0006553
H	-2.6457489	0.5311998	-0.1736699	0	-0.0095395	0.0037517	-0.0035825
H	-1.3330995	0.3016699	-1.3311695	0	-0.0007855	0.0003369	-0.0056503
H	-0.7448897	0.2160499	1.7078193	0	-0.0030595	0.0026992	0.0024359
H	-0.9760796	-2.0535892	-0.3556699	0	-0.0031462	0.0028308	-0.0050768
H	-0.2505599	-2.1623291	1.3220995	0	-0.0065560	0.0000011	0.0004184
H	1.3853495	-0.4994298	1.3090495	0	0.0002206	-0.0009767	0.0030250
H	2.6223990	0.8406397	-0.4761698	0	-0.0016142	-0.0064969	0.0015427
H	1.4050394	1.7752793	0.4276398	0	-0.0082048	-0.0046060	0.0001271
H	1.0635396	1.1898495	-1.2290495	0	-0.0093135	-0.0024719	-0.0036509
