17
Properties=species:S:1:pos:R:3:molID:I:1:forces_dft:R:3 Nmols=1 Comp=VC(1) energy_dft=-8428.644861837034 pbc="F F F"
C	-1.4910194	0.4402798	0.9917396	0	0.0079346	-0.0024359	-0.0045722
C	-2.0360692	0.1188899	-0.3251199	0	0.0024848	-0.0046884	0.0034392
C	-0.9925596	-0.8310097	0.2907999	0	-0.0058784	0.0066155	-0.0023621
C	0.3301599	-0.8416497	-0.2331499	0	0.0069347	-0.0002441	-0.0013188
C	1.0608296	0.2514199	-0.7795397	0	0.0006422	-0.0000117	0.0022665
C	2.1374491	0.2989999	0.5315598	0	0.0024020	0.0004703	-0.0057141
O	1.4270695	0.1124400	1.6151994	0	0.0052235	0.0005804	0.0073938
H	-0.7495697	1.2152295	1.1129896	0	-0.0059095	0.0032961	0.0055531
H	-2.0845192	0.2397199	1.8723392	0	-0.0042812	0.0027787	0.0029034
H	-3.0292088	-0.3027499	-0.4002599	0	-0.0047421	-0.0040232	0.0034438
H	-1.7115493	0.6894297	-1.1850196	0	-0.0011208	-0.0000934	-0.0013222
H	-1.3618294	-1.7656493	0.6874397	0	-0.0037787	-0.0002660	0.0019217
H	0.8305797	-1.8062693	-0.2533199	0	0.0011754	-0.0015406	0.0040842
H	1.6341694	0.0135200	-1.6729893	0	0.0015753	-0.0028470	-0.0023841
H	0.5215898	1.1918295	-0.8579496	0	-0.0013892	0.0010729	0.0025074
H	2.8199489	-0.5209898	0.2232999	0	0.0018599	-0.0023835	-0.0000615
H	2.7131989	1.2469195	0.4549998	0	0.0019132	0.0016418	0.0021698
