9
Properties=species:S:1:pos:R:3:molID:I:1:forces_dft:R:3 Nmols=1 Comp=VC(1) energy_dft=-7266.632114913135 pbc="F F F"
O	0.1296800	1.7869593	-0.6621698	0	-0.0006587	-0.0153094	-0.0014850
C	0.1954299	0.7103097	-0.1496899	0	-0.0057693	0.0114005	-0.0037851
C	1.2660395	-0.1418500	0.1735099	0	0.0023069	-0.0004253	-0.0053462
O	-0.4994498	-1.0290896	-0.8406597	0	0.0084798	0.0047334	-0.0079658
C	-1.1534195	-0.2613099	-0.0039000	0	0.0001159	0.0032022	0.0059133
H	1.0809896	-1.0306796	0.7522597	0	0.0004390	-0.0036741	0.0033940
H	2.2806991	0.2507599	0.1425800	0	0.0009811	0.0006606	0.0002789
H	-1.9444192	0.3730498	-0.4112699	0	-0.0038379	-0.0028776	-0.0000384
H	-1.3551395	-0.6512597	1.0009096	0	-0.0023462	-0.0012011	0.0042837
