16
Properties=species:S:1:pos:R:3:molID:I:1:forces_dft:R:3 Nmols=1 Comp=VC(1) energy_dft=-7392.767032140059 pbc="F F F"
C	2.0426592	0.8255697	-0.0295300	0	0.0034181	-0.0054622	0.0046993
C	1.1949895	-0.3340099	-0.3585799	0	0.0147373	0.0086142	0.0058165
C	0.3346399	-0.9511796	0.5576498	0	0.0028145	0.0015321	-0.0019717
C	-0.9429296	-0.1398299	-0.5605498	0	0.0163123	-0.0047270	0.0048952
C	-2.2066892	0.0834100	0.2332299	0	-0.0092091	-0.0042897	-0.0029970
O	-0.3527599	0.9018596	-1.0669796	0	-0.0113449	0.0235119	-0.0034908
H	2.2753391	1.4198395	-0.9089997	0	-0.0024948	0.0007729	-0.0036072
H	1.5631094	1.4482494	0.7234797	0	-0.0018575	0.0001331	0.0003844
H	2.9729388	0.4260998	0.3960698	0	-0.0002217	-0.0015089	0.0027067
H	1.3931895	-0.8384897	-1.2990695	0	0.0012231	-0.0003868	-0.0061259
H	0.1447999	-2.0129292	0.4723498	0	-0.0031131	-0.0040863	-0.0052800
H	0.2930199	-0.5359398	1.5592594	0	0.0003655	0.0024513	0.0003553
H	-1.0274996	-1.0356396	-1.2012195	0	-0.0042195	0.0009156	-0.0023316
H	-2.5946090	-0.8388597	0.6700097	0	-0.0040172	-0.0029691	0.0037017
H	-2.0406692	0.8260897	1.0133096	0	-0.0011796	0.0004263	0.0006190
H	-2.9486989	0.4860698	-0.4634698	0	-0.0065573	0.0032959	-0.0005967
