10
Properties=species:S:1:pos:R:3:molID:I:1:forces_dft:R:3 Nmols=1 Comp=VC(1) energy_dft=-9313.058083654627 pbc="F F F"
O	-1.1890296	-1.6557593	0.2169999	0	-0.0089702	-0.0026771	0.0015761
C	-0.4170298	-0.6032798	-0.2057799	0	0.0075127	0.0112806	-0.0035321
C	0.2396699	1.4951894	0.1603199	0	0.0029734	-0.0027927	-0.0060456
O	1.2252395	1.1364896	-0.5208498	0	-0.0011892	-0.0118765	0.0043677
C	0.9169697	-0.6567797	0.1857999	0	0.0140798	0.0092783	0.0045707
O	1.7604493	-1.0308096	0.8803897	0	0.0074685	-0.0013574	-0.0146518
H	-1.5747694	-2.1076492	-0.5369498	0	-0.0006277	-0.0031339	-0.0006872
H	-0.6576998	-0.1401299	-1.1488696	0	-0.0020635	-0.0017380	-0.0030435
H	0.2675499	1.4927294	1.2571495	0	0.0017449	-0.0027095	0.0044909
H	-0.5786198	2.0677592	-0.2954899	0	-0.0006330	0.0001983	0.0009623
