12
Properties=species:S:1:pos:R:3:molID:I:1:forces_dft:R:3 Nmols=1 Comp=VC(1) energy_dft=-8335.385638626065 pbc="F F F"
C	1.6156493	-0.5685898	0.1183100	0	-0.0044003	0.0061983	0.0017954
C	0.1335699	-0.3318199	0.2758999	0	0.0051158	0.0091890	-0.0008651
C	-1.3924395	1.1568596	0.2111699	0	0.0141389	-0.0050343	-0.0007452
O	-2.2163791	0.2196599	0.0289900	0	0.0089007	0.0090868	-0.0117459
C	-0.6764697	-0.6401598	-0.8002197	0	-0.0063673	0.0143719	0.0027107
O	-0.8446497	-0.8737497	-1.9179392	0	-0.0018700	-0.0078657	0.0028659
H	2.1578391	0.0717500	0.8148597	0	-0.0047734	-0.0017563	0.0006536
H	1.8943293	-1.6029294	0.3357998	0	-0.0000707	-0.0053907	-0.0045771
H	1.9520492	-0.3306899	-0.8910197	0	-0.0008156	-0.0006713	-0.0036539
H	-0.3012499	-0.4951398	1.2486695	0	-0.0016993	-0.0031423	0.0023172
H	-1.0381196	1.7743293	-0.6252398	0	-0.0035109	-0.0026451	-0.0015810
H	-1.2841295	1.6204794	1.2007295	0	-0.0096598	-0.0042396	0.0022366
