17
Properties=species:S:1:pos:R:3:molID:I:1:forces_dft:R:3 Nmols=1 Comp=VC(1) energy_dft=-9439.064789233753 pbc="F F F"
C	2.1276092	0.9245796	-0.1825099	0	-0.0054848	0.0011776	-0.0017731
O	0.7277597	0.9894396	-0.3527599	0	0.0127319	-0.0065240	0.0027059
C	0.1575799	-0.2250799	-0.6946197	0	0.0037716	0.0030299	0.0029631
C	0.1347399	-1.3728895	0.6775797	0	-0.0097681	0.0084412	0.0012304
O	-0.9295996	-2.1184492	0.5859398	0	0.0027434	0.0013363	-0.0021121
C	-1.2444795	-0.2993699	-0.5994698	0	0.0071735	0.0025784	0.0039684
C	-2.0246692	0.6916097	0.1521599	0	-0.0021590	0.0006550	-0.0017433
H	2.4046091	0.2924299	0.6660597	0	-0.0010190	-0.0035718	0.0012771
H	2.6138989	0.5397598	-1.0866996	0	-0.0001303	0.0031165	-0.0032487
H	2.4715890	1.9404593	0.0018600	0	0.0002173	0.0042916	-0.0021276
H	0.6300398	-0.7268897	-1.5412494	0	-0.0002945	-0.0011120	-0.0024750
H	0.1546799	-0.5497298	1.4245495	0	0.0019622	0.0042297	-0.0003171
H	1.1171995	-1.8917893	0.7000797	0	0.0027163	-0.0021504	-0.0001662
H	-1.7582293	-1.0544196	-1.1719795	0	0.0003672	0.0000617	-0.0048607
H	-3.0406288	0.3573798	0.3417399	0	-0.0043342	-0.0013265	-0.0005472
H	-1.5142594	0.9320296	1.0873796	0	-0.0019838	0.0029936	-0.0001870
H	-2.0359392	1.6232793	-0.4258298	0	-0.0012237	0.0014481	0.0001512
