17
Properties=species:S:1:pos:R:3:molID:I:1:forces_dft:R:3 Nmols=1 Comp=VC(1) energy_dft=-8428.712470606059 pbc="F F F"
C	2.0232192	0.7467697	-0.2719099	0	-0.0058049	-0.0011596	0.0032956
C	1.1733096	-0.3253399	0.3625699	0	-0.0077526	0.0003799	-0.0063842
O	0.7176297	-0.1006799	1.5619394	0	0.0041586	0.0113897	-0.0002902
C	-0.8129797	-1.1188896	0.5396898	0	0.0219228	0.0157920	0.0061188
C	-1.7781993	0.0043200	0.6827497	0	0.0011415	0.0069621	0.0053003
C	-1.2771195	0.5320898	-0.6918497	0	-0.0036781	0.0012102	0.0010314
C	-0.3221599	-0.6608397	-0.7004397	0	0.0018460	0.0061180	0.0023514
H	1.5055794	1.7062393	-0.2538699	0	-0.0068917	-0.0012199	-0.0017826
H	2.9232288	0.8405197	0.3428699	0	0.0010592	-0.0041882	0.0018676
H	2.3134091	0.4997898	-1.2948195	0	-0.0035602	0.0024631	-0.0042797
H	1.5778594	-1.3319395	0.1537099	0	0.0018192	-0.0035824	-0.0010746
H	-0.7089797	-2.0453192	1.0892996	0	-0.0030813	-0.0030956	-0.0023408
H	-1.6087494	0.6307897	1.5565794	0	-0.0006424	0.0017736	-0.0020690
H	-2.8100489	-0.3580398	0.6702297	0	-0.0044444	-0.0000370	-0.0016081
H	-2.0367592	0.5321998	-1.4736194	0	-0.0067335	0.0032843	-0.0063042
H	-0.8003297	1.5130694	-0.6594497	0	-0.0026788	-0.0007225	-0.0050588
H	0.0445800	-1.2314795	-1.5430694	0	-0.0006488	-0.0012290	-0.0043084
