1
Properties=species:S:1:pos:R:3:molID:I:1:forces_dft:R:3 config_type=IsolatedAtom Nmols=1 Comp=VC(1) energy_dft=-1485.45770 pbc="F F F"
N   0.0000000   0.0000000       0.0000000       0       0.0000000       0.0000000       0.0000000
1
Properties=species:S:1:pos:R:3:molID:I:1:forces_dft:R:3 config_type=IsolatedAtom Nmols=1 Comp=VC(1) energy_dft=-1029.81383 pbc="F F F"
C   0.0000000   0.0000000       0.0000000       0       0.0000000       0.0000000       0.0000000
1
Properties=species:S:1:pos:R:3:molID:I:1:forces_dft:R:3 config_type=IsolatedAtom Nmols=1 Comp=VC(1) energy_dft=-2042.85979 pbc="F F F"
O   0.0000000   0.0000000       0.0000000       0       0.0000000       0.0000000       0.0000000
1
Properties=species:S:1:pos:R:3:molID:I:1:forces_dft:R:3 config_type=IsolatedAtom Nmols=1 Comp=VC(1) energy_dft=-13.6631883 pbc="F F F"
H   0.0000000   0.0000000       0.0000000       0       0.0000000       0.0000000       0.0000000
