10
Properties=species:S:1:pos:R:3:molID:I:1:forces_dft:R:3 Nmols=1 Comp=VC(2) energy_dft=-5255.495835884198 pbc="F F F"
O	0.9709196	1.3700195	0.0147300	0	-0.0051809	0.0046064	0.0040531
C	-0.0518100	0.5792997	0.5409598	0	-0.0012152	-0.0032756	-0.0080084
H	0.0843100	0.2943199	1.5810794	0	-0.0013503	-0.0008017	0.0030789
C	-0.7724397	-0.3776499	-0.3568999	0	0.0049022	0.0067418	0.0012161
H	-0.4398398	-0.4243198	-1.3858395	0	0.0031366	-0.0027335	-0.0037069
H	-1.1235796	-1.3142295	0.0564100	0	-0.0019006	-0.0011667	0.0059999
C	-1.4286594	0.9043896	0.0897400	0	0.0059892	-0.0041472	0.0034650
H	-1.5149794	1.6934093	-0.6452197	0	-0.0005088	0.0018632	-0.0024851
H	-2.2348991	0.8545997	0.8090897	0	-0.0032088	0.0014433	0.0013594
H	1.7429793	0.8162797	-0.1161700	0	0.0017939	-0.0011163	0.0010066
