2
Properties=species:S:1:pos:R:3:molID:I:1:forces_dft:R:3 Nmols=1 Comp=VC(2) energy_dft=-3083.792639390569 pbc="F F F"
O	3.0819888	-0.0359800	1.3071295	0	-0.0043504	-0.0030820	0.0019030
C	2.4455091	-0.9609096	1.2690295	0	0.0000144	-0.0009083	-0.0006378
