3
Properties=species:S:1:pos:R:3:molID:I:1:forces_dft:R:3 Nmols=1 Comp=VC(1) energy_dft=-2541.949314599035 pbc="F F F"
C	1.3634795	0.7635797	0.5335998	0	0.0058423	0.0057939	0.0001235
N	2.3084491	1.2916495	0.9025396	0	-0.0060014	-0.0000561	0.0023519
H	0.4807498	0.2708199	0.1883399	0	-0.0021917	-0.0035802	0.0012100
