10
Properties=species:S:1:pos:R:3:molID:I:1:forces_dft:R:3 Nmols=1 Comp=VC(1) energy_dft=-5255.322556674877 pbc="F F F"
C	-0.7938497	-0.1212600	-1.0399696	0	0.0070394	-0.0092864	0.0025795
H	-0.1633200	-0.7091297	-1.7039194	0	0.0006315	-0.0019028	-0.0021441
H	-1.7262993	0.1202500	-1.5460994	0	-0.0024057	0.0012072	0.0006927
C	-0.9410396	-0.6775597	0.3820299	0	0.0082901	0.0120456	-0.0022873
H	-0.4051898	-1.6086393	0.5869398	0	0.0006012	-0.0043718	0.0002020
H	-1.9657892	-0.7657997	0.7541497	0	-0.0033692	0.0026116	0.0033710
O	-0.2681799	0.4574698	0.9456396	0	-0.0042469	0.0024747	-0.0010222
C	-0.0968600	1.0563796	-0.3470499	0	-0.0056918	-0.0065659	-0.0004328
H	0.9598596	1.1966795	-0.5913697	0	0.0037877	-0.0047012	-0.0017099
H	-0.6105498	2.0194392	-0.4168798	0	-0.0015996	0.0015948	0.0030064
