2
Properties=species:S:1:pos:R:3:molID:I:1:forces_dft:R:3 Nmols=1 Comp=VC(1) energy_dft=-3083.792626169746 pbc="F F F"
C	2.0598692	1.7927593	-1.0775696	0	-0.0019818	-0.0023032	-0.0001773
O	2.7465789	0.9191697	-1.2431095	0	0.0187075	0.0158517	0.0010086
