10
Properties=species:S:1:pos:R:3:molID:I:1:forces_dft:R:3 Nmols=1 Comp=VC(2) energy_dft=-3678.370262821498 pbc="F F F"
C	-1.3530894	0.1357099	0.2073399	0	0.0044683	-0.0005487	0.0074967
N	-0.0752700	-0.2570099	0.7641397	0	0.0013988	-0.0003654	-0.0014892
C	0.8572596	0.8454896	0.8754396	0	-0.0072501	-0.0005279	0.0023797
H	1.1150696	1.2067395	-0.1235300	0	-0.0013139	0.0029927	-0.0040506
H	1.7785693	0.5045998	1.3497395	0	0.0020261	0.0015205	-0.0011124
H	0.4675598	1.7033893	1.4475094	0	0.0009329	0.0046001	-0.0000446
H	-0.2103199	-0.6861597	1.6683793	0	-0.0009715	-0.0006324	0.0037542
H	-1.2154395	0.4565498	-0.8285397	0	0.0003211	0.0014771	-0.0035720
H	-1.8410193	0.9630896	0.7481997	0	-0.0012633	0.0022138	0.0005521
H	-2.0317292	-0.7183497	0.1998799	0	-0.0001995	-0.0026407	0.0000644
