9
Properties=species:S:1:pos:R:3:molID:I:1:forces_dft:R:3 Nmols=1 Comp=VC(2) energy_dft=-5690.718902461364 pbc="F F F"
O	2.5120090	-0.0326900	-0.6771697	0	-0.0124016	0.0013977	-0.0047207
C	1.8148093	0.3131099	0.2360399	0	0.0109504	-0.0020569	-0.0102649
C	0.3200999	0.0947500	0.2955799	0	0.0038612	-0.0066625	-0.0080748
N	-0.2796999	-0.5898298	-0.8226497	0	-0.0058465	0.0076781	0.0042772
H	0.1375499	-1.5050194	-0.9337696	0	0.0047014	-0.0058119	0.0035092
H	-0.0845499	-0.0901100	-1.6806593	0	0.0032825	0.0023053	-0.0052567
H	0.1082600	-0.4437098	1.2270095	0	-0.0001952	-0.0043182	0.0033004
H	-0.1438699	1.0797096	0.4283398	0	-0.0016876	0.0020657	-0.0052482
H	2.2503491	0.8313797	1.1177796	0	-0.0030988	0.0008786	0.0036700
