2
Properties=species:S:1:pos:R:3:molID:I:1:forces_dft:R:3 Nmols=1 Comp=VC(1) energy_dft=-3083.653480883814 pbc="F F F"
C	-1.1420895	2.8259489	-1.1193895	0	-0.0005779	0.0005888	0.0017478
O	-1.3413395	3.0211388	-0.0311600	0	0.0005358	-0.0007659	0.0000899
