2
Properties=species:S:1:pos:R:3:molID:I:1:forces_dft:R:3 Nmols=1 Comp=VC(2) energy_dft=-3083.792630627056 pbc="F F F"
O	-2.7952489	-1.5298094	-2.0109092	0	-0.0016230	-0.0006137	-0.0005353
C	-2.9553488	-1.7195093	-0.9152696	0	0.0001930	0.0001145	-0.0027015
