12
Properties=species:S:1:pos:R:3:molID:I:1:forces_dft:R:3 Nmols=1 Comp=VC(2) energy_dft=-5286.511845264249 pbc="F F F"
C	-0.5226898	1.6641693	0.2234899	0	0.0057013	0.0048242	-0.0053109
C	-0.0454100	0.2431399	-0.0333800	0	0.0126879	-0.0063708	0.0118410
C	-1.1725596	-0.7660697	0.0443400	0	-0.0061845	-0.0027908	-0.0043040
H	-0.7926297	-1.7739393	-0.1250200	0	-0.0037490	-0.0033457	-0.0057749
H	-1.9358492	-0.5509098	-0.7053897	0	-0.0018344	-0.0016983	-0.0013562
H	-1.6362494	-0.7361397	1.0326396	0	-0.0018901	-0.0030023	0.0016601
O	0.9214197	-0.1551499	0.9303396	0	0.0026495	0.0084275	-0.0095610
H	1.6405293	0.4788798	0.9240596	0	0.0003171	-0.0007541	-0.0003999
H	0.4030398	0.1948599	-1.0363096	0	0.0026836	0.0025988	-0.0013347
H	-1.2660295	1.9653292	-0.5175498	0	-0.0032805	-0.0021769	0.0006506
H	-0.9715696	1.7365993	1.2165595	0	-0.0014397	-0.0026084	0.0041133
H	0.3068099	2.3742691	0.1685499	0	0.0020851	0.0005242	-0.0008577
