2
Properties=species:S:1:pos:R:3:molID:I:1:forces_dft:R:3 Nmols=1 Comp=VC(1) energy_dft=-3083.653461422628 pbc="F F F"
C	2.9525088	-0.5252798	-2.0989592	0	-0.0018772	-0.0006032	-0.0025608
O	2.2005891	-0.3251399	-2.9092589	0	0.0012732	0.0057886	0.0098494
