14
Properties=species:S:1:pos:R:3:molID:I:1:forces_dft:R:3 Nmols=1 Comp=VC(2) energy_dft=-5781.216011164435 pbc="F F F"
C	-1.2117995	-0.0831299	1.2649895	0	0.0013003	-0.0025169	-0.0091546
C	-0.9649096	0.0174500	-0.2145099	0	-0.0000425	0.0070077	0.0041393
H	-1.5076294	-0.7173597	-0.8047297	0	0.0017807	0.0009538	0.0004327
N	-0.8584697	1.3573795	-0.7905997	0	-0.0028499	-0.0000517	0.0091228
H	-1.3018995	1.4057194	-1.6984993	0	-0.0032895	-0.0020171	-0.0029072
C	0.3098599	0.4784598	-0.8119297	0	-0.0044440	0.0120502	0.0009245
C	1.5103394	0.8998397	-0.0110000	0	0.0002655	-0.0018477	-0.0057874
H	1.2133995	1.4021394	0.9085997	0	-0.0016272	0.0014937	0.0004065
H	2.1245492	1.5962894	-0.5854398	0	0.0021931	0.0017395	0.0000645
H	2.1289891	0.0370700	0.2469199	0	0.0029039	-0.0028161	0.0044044
H	0.5546898	0.0277900	-1.7711293	0	0.0012238	0.0031174	-0.0023121
H	-0.6999297	0.7127397	1.8042893	0	-0.0009034	0.0030092	0.0027375
H	-2.2787591	0.0061300	1.4794394	0	-0.0037146	-0.0022143	-0.0004933
H	-0.8668097	-1.0444996	1.6527394	0	0.0021977	-0.0027088	0.0012201
