12
Properties=species:S:1:pos:R:3:molID:I:1:forces_dft:R:3 Nmols=1 Comp=VC(1) energy_dft=-5750.688153002092 pbc="F F F"
N	-0.9149596	0.6054898	1.0610196	0	-0.0025185	-0.0130024	-0.0099186
C	-0.1637400	-0.6393497	1.0463696	0	-0.0041738	0.0010982	-0.0006589
C	0.7456197	-0.6949597	-0.1810199	0	-0.0028497	0.0046985	-0.0035664
C	1.7733293	0.3440599	-0.1558699	0	0.0121842	0.0051948	0.0022966
C	2.6018890	1.2078295	-0.1040100	0	-0.0183003	-0.0147595	-0.0028061
H	3.3447287	1.9690692	-0.0688900	0	0.0024080	0.0020233	-0.0003172
H	1.2309295	-1.6726293	-0.2351599	0	0.0010027	-0.0021421	0.0008684
H	0.1380800	-0.5761698	-1.0814896	0	-0.0037514	0.0002751	-0.0021462
H	-0.8727197	-1.4682194	0.9822696	0	-0.0011642	-0.0032709	-0.0015263
H	0.4495698	-0.8005097	1.9442092	0	0.0034811	0.0001000	0.0025546
H	-1.5304894	0.6462197	1.8611893	0	-0.0006565	0.0015647	0.0023435
H	-0.2827699	1.3940994	1.1251096	0	0.0034481	0.0022304	0.0037914
