10
Properties=species:S:1:pos:R:3:molID:I:1:forces_dft:R:3 Nmols=1 Comp=VC(2) energy_dft=-5151.960952486983 pbc="F F F"
C	-1.0167996	-1.0588896	-0.0864800	0	0.0042275	-0.0072404	0.0072941
N	0.3341299	-0.7942397	-0.5099798	0	0.0073363	0.0050124	0.0062280
C	1.2718095	-0.2544799	0.3206499	0	-0.0066389	0.0027341	0.0039669
N	1.1299895	0.1748799	1.5077994	0	0.0154617	0.0043084	-0.0060445
H	0.1755699	0.0661100	1.8439893	0	-0.0049643	-0.0012753	0.0013024
H	2.2582891	-0.1889799	-0.1409199	0	0.0024715	-0.0049960	-0.0040248
H	0.6517397	-1.1894795	-1.3739695	0	-0.0000903	-0.0019929	-0.0050379
H	-1.5289794	-0.1344000	0.1949299	0	-0.0001260	0.0024263	0.0021541
H	-1.5670694	-1.5088294	-0.9105996	0	-0.0031277	-0.0000479	-0.0046984
H	-1.0529896	-1.7439793	0.7676997	0	-0.0030082	0.0000622	0.0007481
