2
Properties=species:S:1:pos:R:3:molID:I:1:forces_dft:R:3 Nmols=1 Comp=VC(1) energy_dft=-3083.792618071334 pbc="F F F"
C	1.1901296	2.2228891	-0.0500900	0	-0.0014461	-0.0014313	0.0013151
O	1.9660893	3.0041288	-0.2729399	0	-0.0015029	-0.0016886	-0.0065628
