2
Properties=species:S:1:pos:R:3:molID:I:1:forces_dft:R:3 Nmols=1 Comp=VC(2) energy_dft=-3083.653532300788 pbc="F F F"
O	2.5693190	0.1679199	3.1874988	0	0.0011504	0.0115096	0.0007259
C	2.3001491	-0.8964597	2.9494588	0	0.0000010	-0.0008089	0.0003990
