2
Properties=species:S:1:pos:R:3:molID:I:1:forces_dft:R:3 Nmols=1 Comp=VC(1) energy_dft=-3083.653539363969 pbc="F F F"
C	-3.4051886	-0.1719599	-0.0165700	0	0.0010997	-0.0015646	-0.0017015
O	-3.0597288	0.5825498	0.7407097	0	-0.0090030	0.0010550	0.0023086
