12
Properties=species:S:1:pos:R:3:molID:I:1:forces_dft:R:3 Nmols=1 Comp=VC(2) energy_dft=-5286.340301585188 pbc="F F F"
C	-2.2494491	0.1780099	-0.0658500	0	-0.0035695	0.0042529	0.0001614
C	-0.9959196	0.7962897	0.5381298	0	0.0026123	-0.0064504	-0.0052073
C	0.2537299	0.0134000	0.1955799	0	0.0079171	0.0114800	0.0093382
O	1.3643295	0.6577098	0.7928997	0	0.0029863	-0.0098824	-0.0036387
H	2.1589191	0.1668999	0.5812698	0	-0.0004060	0.0011607	0.0013786
H	0.1572199	-1.0174996	0.5641798	0	-0.0009504	-0.0050550	-0.0016226
H	0.3725999	-0.0359100	-0.8959396	0	0.0004460	0.0015227	-0.0034689
H	-1.0838496	0.8493297	1.6266393	0	0.0010299	-0.0008386	0.0044549
H	-0.8691597	1.8228793	0.1840699	0	0.0003582	0.0035558	0.0018523
H	-2.4035990	-0.8425297	0.2935899	0	-0.0018804	-0.0041908	-0.0008900
H	-3.1370388	0.7563397	0.1938399	0	-0.0032591	0.0009494	-0.0008298
H	-2.1883992	0.1388100	-1.1563895	0	0.0015409	-0.0012128	-0.0057907
