10
Properties=species:S:1:pos:R:3:molID:I:1:forces_dft:R:3 Nmols=1 Comp=VC(1) energy_dft=-4242.050884725571 pbc="F F F"
C	-0.3929599	0.1342999	1.3720794	0	0.0068066	-0.0046403	0.0010819
C	0.2415399	-0.0481600	-0.0071500	0	-0.0044858	0.0074041	-0.0006666
C	1.5382094	0.6152598	-0.1248399	0	0.0213274	-0.0002541	-0.0032358
C	2.5985390	1.1674896	-0.1971099	0	-0.0144293	-0.0029727	0.0014835
H	3.5410486	1.6568993	-0.2641699	0	0.0013669	0.0023358	0.0044557
H	0.3732199	-1.1120196	-0.2213499	0	-0.0000679	-0.0014850	-0.0032824
H	-0.4242998	0.3424599	-0.7810797	0	0.0001143	0.0011916	-0.0011336
H	-1.3534194	-0.3808699	1.4188494	0	-0.0011350	-0.0016067	-0.0043009
H	0.2529499	-0.2695299	2.1523291	0	-0.0004262	-0.0008262	0.0035410
H	-0.5586898	1.1906995	1.5858594	0	0.0024291	0.0030171	0.0026300
