9
Properties=species:S:1:pos:R:3:molID:I:1:forces_dft:R:3 Nmols=1 Comp=VC(2) energy_dft=-5691.373725067295 pbc="F F F"
C	-0.5330698	1.1780395	-0.2150299	0	-0.0026305	-0.0006728	0.0042211
N	-0.1215800	0.3402099	0.8884997	0	-0.0011480	0.0017364	-0.0039521
C	-0.3898598	-0.9840496	0.9498796	0	-0.0003196	-0.0041427	-0.0025590
O	-0.9875496	-1.6183894	0.1122800	0	0.0023014	-0.0001405	-0.0039677
H	0.0064400	-1.4456794	1.8722692	0	0.0020936	-0.0027544	0.0025110
H	0.3782799	0.7494197	1.6568294	0	0.0008366	-0.0006560	0.0026123
H	-1.0298496	0.5432298	-0.9453496	0	-0.0025826	0.0018785	-0.0013898
H	-1.2326195	1.9496693	0.1125700	0	-0.0018512	0.0034627	-0.0001855
H	0.3279599	1.6543693	-0.6872897	0	0.0045854	-0.0004656	0.0011057
