11
Properties=species:S:1:pos:R:3:molID:I:1:forces_dft:R:3 Nmols=1 Comp=VC(2) energy_dft=-3242.308779759921 pbc="F F F"
C	-1.7570293	0.0414500	0.3368798	0	0.0031024	-0.0005116	-0.0058205
C	-0.3168199	-0.0428700	-0.1522099	0	-0.0012291	0.0021402	0.0041101
C	0.6974097	0.2005999	0.9581696	0	-0.0044638	-0.0045081	-0.0000757
H	0.5699698	1.1938296	1.3965694	0	-0.0018501	0.0056834	0.0016076
H	0.5805098	-0.5302998	1.7624393	0	-0.0044166	0.0016530	0.0032581
H	1.7223593	0.1293700	0.5892798	0	0.0029962	-0.0024757	0.0011774
H	-0.1410100	-1.0271696	-0.5967298	0	0.0031592	-0.0037208	0.0007890
H	-0.1601000	0.6844597	-0.9544396	0	0.0010665	0.0001063	-0.0004847
H	-1.9740492	1.0288096	0.7524397	0	-0.0021714	0.0022738	-0.0041365
H	-1.9482592	-0.6948397	1.1217696	0	-0.0007391	-0.0020614	0.0000761
H	-2.4679690	-0.1430199	-0.4707298	0	-0.0012821	-0.0023636	-0.0004106
