9
Properties=species:S:1:pos:R:3:molID:I:1:forces_dft:R:3 Nmols=1 Comp=VC(2) energy_dft=-5691.371927436809 pbc="F F F"
C	1.3484895	-0.8046097	0.2473799	0	-0.0045257	0.0089572	-0.0077008
N	0.0211000	-0.2954999	-0.0132700	0	0.0072021	-0.0080422	0.0006655
C	-1.0657396	-1.0924696	-0.1278800	0	-0.0001955	-0.0150497	-0.0005351
O	-1.0657696	-2.2971891	-0.0292800	0	0.0001195	0.0119147	0.0021946
H	-1.9863192	-0.5144998	-0.3266799	0	-0.0036982	0.0021883	0.0011426
H	-0.1141399	0.6936297	-0.1192799	0	-0.0016079	0.0084422	-0.0010738
H	2.0294992	-0.5732598	-0.5739498	0	0.0040244	0.0009064	0.0014378
H	1.2746095	-1.8852193	0.3487999	0	0.0014841	-0.0068914	-0.0016763
H	1.7532693	-0.3900199	1.1724695	0	0.0013886	0.0013560	0.0004461
