2
Properties=species:S:1:pos:R:3:molID:I:1:forces_dft:R:3 Nmols=1 Comp=VC(1) energy_dft=-3083.792676097849 pbc="F F F"
C	3.7826385	-1.3214195	-0.2886299	0	-0.0034901	0.0014750	0.0023824
O	4.5521782	-2.0243892	-0.7078797	0	0.0007179	0.0054608	-0.0040714
