8
Properties=species:S:1:pos:R:3:molID:I:1:forces_dft:R:3 Nmols=1 Comp=VC(2) energy_dft=-2172.416236902523 pbc="F F F"
C	-0.9857396	-0.2777299	0.6022698	0	0.0031586	-0.0021598	-0.0080855
C	-0.0387400	-0.8782897	-0.4280198	0	-0.0019453	0.0010419	0.0070150
H	0.9338497	-1.1076296	0.0118500	0	0.0030161	-0.0015067	0.0011931
H	-0.4392198	-1.8055693	-0.8424197	0	-0.0021960	-0.0030183	0.0032480
H	0.1304500	-0.1914999	-1.2595695	0	-0.0007917	0.0020805	0.0008117
H	-0.5848698	0.6491597	1.0171796	0	0.0020207	0.0028823	-0.0029351
H	-1.1556495	-0.9646396	1.4335994	0	0.0003122	-0.0018351	0.0001935
H	-1.9580593	-0.0474900	0.1622099	0	-0.0035500	0.0025041	-0.0014449
