2
Properties=species:S:1:pos:R:3:molID:I:1:forces_dft:R:3 Nmols=1 Comp=VC(1) energy_dft=-3083.653464469625 pbc="F F F"
C	2.0312892	-1.9993892	-2.1788792	0	-0.0005001	-0.0014197	0.0002956
O	2.0587292	-1.0473396	-2.7746589	0	0.0019900	-0.0096981	0.0015936
