11
Properties=species:S:1:pos:R:3:molID:I:1:forces_dft:R:3 Nmols=1 Comp=VC(2) energy_dft=-7199.403446127526 pbc="F F F"
C	-1.7800193	0.0262500	-1.2246395	0	0.0063840	-0.0009395	0.0045225
O	-1.4516594	-0.2324999	0.1288999	0	0.0039764	-0.0033134	0.0026024
C	-0.1934599	-0.0079800	0.5780998	0	0.0018368	-0.0041249	0.0040653
N	0.7611197	0.2409499	-0.3878399	0	-0.0119048	0.0133644	0.0000133
H	0.7096397	-0.3029699	-1.2326995	0	-0.0024364	-0.0020428	-0.0033289
H	1.6847393	0.2774599	0.0110200	0	0.0069978	-0.0019905	0.0047642
N	0.0900299	0.0110400	1.8091293	0	-0.0007483	-0.0030047	-0.0068774
H	-0.7511097	-0.0868100	2.3663991	0	-0.0008259	-0.0020950	0.0002475
H	-2.8636689	-0.0439700	-1.2876895	0	-0.0068262	-0.0020650	-0.0003444
H	-1.3484595	-0.7225797	-1.8968092	0	0.0023923	-0.0021802	-0.0007770
H	-1.4586794	1.0231996	-1.5309794	0	-0.0013590	0.0038346	-0.0018429
