2
Properties=species:S:1:pos:R:3:molID:I:1:forces_dft:R:3 Nmols=1 Comp=VC(1) energy_dft=-3083.792631955244 pbc="F F F"
C	1.0680596	-1.3316595	-1.8535993	0	0.0004383	-0.0017666	0.0004475
O	1.2635295	-2.4217791	-1.6652493	0	-0.0006114	-0.0003009	-0.0009903
