6
Properties=species:S:1:pos:R:3:molID:I:1:forces_dft:R:3 Nmols=1 Comp=VC(2) energy_dft=-3149.397083367632 pbc="F F F"
C	-1.1108096	-0.6259198	-0.0868900	0	0.0160005	0.0014685	0.0058848
O	0.1558899	-1.2480795	-0.1100000	0	-0.0130344	-0.0021858	0.0021021
H	0.8277897	-0.5839798	0.0454300	0	-0.0042410	-0.0041220	0.0001225
H	-1.2148295	0.1343399	-0.8693797	0	0.0005010	-0.0001863	-0.0022518
H	-1.3286095	-0.1651299	0.8833697	0	-0.0030118	-0.0009502	0.0015140
H	-1.8518392	-1.4035194	-0.2686899	0	0.0002457	-0.0020020	0.0009942
