14
Properties=species:S:1:pos:R:3:molID:I:1:forces_dft:R:3 Nmols=1 Comp=VC(2) energy_dft=-4312.245307823558 pbc="F F F"
C	-1.1035996	-0.8361697	-0.2139499	0	-0.0038030	0.0076929	0.0066197
C	-0.1162600	0.3032099	0.0201100	0	-0.0083060	-0.0064002	0.0028024
C	-0.8361797	1.5607794	0.4978898	0	0.0055633	-0.0002971	0.0049130
H	-0.1387199	2.3896491	0.6382898	0	0.0012365	0.0019808	0.0068702
H	-1.5973594	1.8793693	-0.2178499	0	-0.0034828	-0.0020842	0.0006959
H	-1.3346595	1.3811994	1.4553694	0	0.0000506	-0.0006137	0.0034390
C	0.9731596	-0.1122600	1.0041696	0	-0.0005183	0.0149309	-0.0116284
H	1.7004793	0.6882497	1.1571295	0	-0.0010477	0.0020256	0.0048271
H	0.5401498	-0.3576698	1.9787392	0	-0.0039360	0.0049838	0.0023932
H	1.5132094	-0.9932996	0.6502397	0	0.0005560	-0.0018172	-0.0085953
H	0.3648199	0.5340998	-0.9376796	0	-0.0003954	-0.0001122	-0.0036524
H	-1.8706593	-0.5565798	-0.9395996	0	-0.0012821	-0.0059546	-0.0025915
H	-1.6096894	-1.1067696	0.7177197	0	-0.0021511	-0.0060885	0.0046983
H	-0.5993897	-1.7298793	-0.5886098	0	0.0012999	-0.0024824	-0.0003148
