7
Properties=species:S:1:pos:R:3:molID:I:1:forces_dft:R:3 Nmols=1 Comp=VC(2) energy_dft=-4080.772796388084 pbc="F F F"
N	-0.7541597	1.0592196	0.2952399	0	0.0053093	-0.0059190	0.0070793
C	-0.7612597	-0.1070300	1.0024396	0	-0.0008311	-0.0013021	0.0007507
N	0.1614399	-0.9699196	0.8923196	0	0.0020711	0.0136694	-0.0091895
H	0.0061500	-1.7435593	1.5271794	0	-0.0011083	-0.0028290	0.0017128
H	-1.6163894	-0.1928799	1.6811293	0	-0.0031756	0.0009966	0.0005254
H	-1.6071993	1.5749894	0.1934499	0	-0.0045995	0.0022645	-0.0002731
H	-0.0797800	1.1338896	-0.4473098	0	0.0028823	-0.0011449	-0.0033288
