2
Properties=species:S:1:pos:R:3:molID:I:1:forces_dft:R:3 Nmols=1 Comp=VC(1) energy_dft=-3083.653480969067 pbc="F F F"
O	2.5604490	-2.6038690	-0.1596800	0	0.0012739	0.0062374	-0.0006024
C	2.5323290	-1.4808894	-0.1461300	0	-0.0001868	-0.0036228	0.0000162
