2
Properties=species:S:1:pos:R:3:molID:I:1:forces_dft:R:3 Nmols=1 Comp=VC(1) energy_dft=-3083.792616090562 pbc="F F F"
O	3.8224885	-0.4879398	0.5535198	0	-0.0145437	0.0090521	-0.0011004
C	2.8267489	-1.0073296	0.5825598	0	0.0028999	-0.0000331	-0.0000456
