2
Properties=species:S:1:pos:R:3:molID:I:1:forces_dft:R:3 Nmols=1 Comp=VC(1) energy_dft=-3083.792634024208 pbc="F F F"
C	2.1765591	1.9441693	-1.4287694	0	-0.0014143	-0.0022393	0.0019029
O	2.3350691	2.7035389	-2.2413791	0	0.0053615	0.0015606	0.0084828
