2
Properties=species:S:1:pos:R:3:molID:I:1:forces_dft:R:3 Nmols=1 Comp=VC(1) energy_dft=-3083.653517663858 pbc="F F F"
C	1.9525593	-1.3503395	-1.3806295	0	0.0005248	-0.0005792	0.0020177
O	1.5339894	-0.9296796	-2.3345191	0	-0.0002102	0.0004131	-0.0131205
