15
Properties=species:S:1:pos:R:3:molID:I:1:forces_dft:R:3 Nmols=1 Comp=VC(1) energy_dft=-5348.289675494980 pbc="F F F"
C	1.6090493	-0.3916898	-0.8429997	0	-0.0007374	0.0046670	0.0118536
C	0.4874798	0.1881799	0.0106900	0	-0.0055553	-0.0012095	-0.0010456
C	-0.7168997	0.5893998	-0.8041597	0	0.0018959	-0.0038713	-0.0014839
H	-0.5194098	1.3519195	-1.5516594	0	0.0019004	-0.0001009	-0.0008440
C	-1.7381493	-0.4403998	-1.1833095	0	0.0043396	0.0053400	0.0061073
H	-2.1951591	-0.3862598	-2.1625991	0	-0.0037921	-0.0014804	-0.0016176
H	-1.5915494	-1.4488994	-0.8150397	0	0.0003437	-0.0026553	0.0004594
C	-2.0777392	0.6256398	-0.1806899	0	0.0041155	0.0067261	-0.0094432
H	-2.7644989	1.4071594	-0.4781598	0	-0.0027629	0.0006484	-0.0028398
H	-2.1609692	0.3323299	0.8587997	0	-0.0031990	0.0008333	0.0023851
H	0.8554296	1.0560096	0.5673398	0	-0.0008734	0.0026160	0.0018865
H	0.1782999	-0.5472698	0.7610597	0	0.0031073	-0.0026003	0.0017662
H	2.4680190	-0.6783697	-0.2333699	0	0.0014377	-0.0055808	0.0030865
H	1.9532993	0.3342299	-1.5835894	0	-0.0013042	-0.0009040	-0.0022230
H	1.2677895	-1.2774895	-1.3835395	0	-0.0021977	-0.0023186	0.0011520
