11
Properties=species:S:1:pos:R:3:molID:I:1:forces_dft:R:3 Nmols=1 Comp=VC(2) energy_dft=-7302.551724343147 pbc="F F F"
O	-1.2802695	-0.6169097	1.7009994	0	0.0049211	-0.0028524	-0.0127750
C	-1.1979395	-0.9409396	0.3550899	0	-0.0007747	-0.0014603	-0.0052291
H	-1.8392093	-1.7718893	0.0872300	0	-0.0031250	0.0015964	-0.0027262
C	-0.9772496	0.1496399	-0.6577998	0	-0.0001516	-0.0150779	0.0063985
H	-1.4467694	0.0796500	-1.6303694	0	-0.0029793	-0.0013015	-0.0033590
H	-0.8898697	1.1502095	-0.2516799	0	-0.0032458	0.0028518	-0.0004711
C	0.1277199	-0.8155997	-0.3198599	0	0.0019576	0.0007288	0.0001132
O	1.1586996	-0.3982498	0.5270198	0	0.0134513	0.0015403	-0.0085828
H	1.6329094	0.3247599	0.1135300	0	0.0007633	-0.0002421	0.0012019
H	0.4193199	-1.5588294	-1.0551096	0	-0.0064669	-0.0001139	-0.0028422
H	-0.3840198	-0.4234998	1.9987992	0	0.0040853	0.0022687	0.0040204
