2
Properties=species:S:1:pos:R:3:molID:I:1:forces_dft:R:3 Nmols=1 Comp=VC(1) energy_dft=-3083.792639221885 pbc="F F F"
C	2.5881090	-0.2891099	-1.5982294	0	0.0009125	0.0001522	-0.0012310
O	2.6531790	-0.4666298	-2.7056289	0	0.0002416	0.0018048	0.0017836
