11
Properties=species:S:1:pos:R:3:molID:I:1:forces_dft:R:3 Nmols=1 Comp=VC(2) energy_dft=-5725.832712510380 pbc="F F F"
O	-0.7879497	-1.2854295	0.8534997	0	0.0018375	-0.0095968	-0.0004787
C	-1.3379995	-0.5601898	-0.2180299	0	0.0048584	0.0014021	0.0055114
C	-0.4575098	0.6246397	-0.5818298	0	0.0014070	-0.0018047	-0.0010578
N	0.8913397	0.1390199	-0.8631096	0	0.0028884	0.0030679	0.0056860
H	0.9498596	-0.2704599	-1.7859693	0	-0.0040345	-0.0020446	-0.0041899
H	1.5764994	0.8778097	-0.8097797	0	0.0009487	0.0020045	-0.0035229
H	-0.3999499	1.2931195	0.2802799	0	0.0018708	-0.0019613	0.0037392
H	-0.9115297	1.1842495	-1.4103095	0	0.0024388	0.0051345	-0.0010084
H	-2.3294091	-0.2170099	0.0855000	0	-0.0034870	0.0006419	0.0008640
H	-1.4671494	-1.2053095	-1.1011796	0	-0.0008854	-0.0009576	-0.0003897
H	0.1625099	-1.3057695	0.6862397	0	-0.0007375	-0.0041197	-0.0008261
