7
Properties=species:S:1:pos:R:3:molID:I:1:forces_dft:R:3 Nmols=1 Comp=VC(2) energy_dft=-2608.723169507798 pbc="F F F"
C	-1.0373996	0.2267799	0.0907899	0	-0.0025418	0.0042678	0.0018507
N	0.0505500	0.1947999	-0.8767397	0	0.0084964	0.0057227	0.0058055
H	0.0800300	1.0511496	-1.4124595	0	-0.0022043	0.0039540	-0.0008286
H	-0.0758200	-0.5615698	-1.5347894	0	-0.0003032	-0.0020962	-0.0007818
H	-1.0363496	-0.7007597	0.6658098	0	0.0009113	-0.0010660	0.0013233
H	-0.8685696	1.0410196	0.7974497	0	-0.0005746	0.0012836	0.0010973
H	-2.0396592	0.3551198	-0.3399499	0	-0.0043022	0.0016304	0.0026613
