10
Properties=species:S:1:pos:R:3:molID:I:1:forces_dft:R:3 Nmols=1 Comp=VC(2) energy_dft=-6264.136839860145 pbc="F F F"
O	-1.1347795	0.2991699	1.8615393	0	-0.0041243	-0.0076307	-0.0034291
C	-1.1713395	-0.2696999	0.5747898	0	0.0016196	-0.0000230	-0.0021521
C	0.0847200	-1.0659596	0.2852299	0	0.0006264	0.0084947	0.0035049
O	1.2419995	-0.2526799	0.4131898	0	-0.0062740	-0.0052748	0.0015497
H	1.2851295	0.3426399	-0.3378099	0	0.0012092	0.0010613	0.0014258
H	0.0275800	-1.5278794	-0.7074697	0	0.0027755	-0.0042986	-0.0011347
H	0.1981299	-1.8588293	1.0264796	0	0.0026130	-0.0011451	0.0022979
H	-1.3000995	0.5084398	-0.1940699	0	0.0007987	0.0016282	-0.0015879
H	-2.0472392	-0.9211696	0.5308098	0	-0.0030634	-0.0011226	-0.0042558
H	-0.2519299	0.6621498	1.9810092	0	0.0030719	0.0015747	-0.0016756
