17
Properties=species:S:1:pos:R:3:molID:I:1:forces_dft:R:3 Nmols=1 Comp=VC(2) energy_dft=-5377.702312019725 pbc="F F F"
C	-2.2059792	-1.0940596	0.5788998	0	0.0092285	0.0040645	0.0069880
C	-1.0384396	-0.8247597	-0.3610198	0	-0.0061709	-0.0072148	0.0093551
C	0.2086499	-0.3299098	0.3617498	0	0.0078246	0.0064732	-0.0045847
C	1.3828795	-0.0538100	-0.5693898	0	-0.0059443	-0.0047757	0.0035928
C	2.6262690	0.4322198	0.1635599	0	0.0001321	-0.0015621	-0.0145951
H	3.4509286	0.6175898	-0.5271098	0	0.0004810	0.0020632	-0.0054115
H	2.9642988	-0.3050099	0.8960797	0	-0.0011321	0.0015935	0.0030716
H	2.4280890	1.3628595	0.7012497	0	-0.0018697	0.0034050	-0.0031538
H	1.6202194	-0.9650696	-1.1289795	0	0.0017969	-0.0050398	-0.0025966
H	1.0838796	0.6896197	-1.3160295	0	0.0042733	-0.0004760	-0.0016486
H	-0.0341200	0.5826898	0.9194196	0	-0.0051185	0.0036630	-0.0003439
H	0.5082798	-1.0704396	1.1130396	0	-0.0023462	0.0030877	0.0021513
H	-0.7944297	-1.7380093	-0.9143196	0	0.0054634	-0.0033142	0.0026251
H	-1.3352895	-0.0861100	-1.1132596	0	-0.0014735	-0.0030283	-0.0009980
H	-3.0822588	-1.4559494	0.0378900	0	-0.0030216	-0.0003676	0.0037911
H	-1.9439092	-1.8468793	1.3265295	0	-0.0046352	-0.0011095	0.0027730
H	-2.4979090	-0.1870399	1.1142595	0	-0.0048614	0.0046342	-0.0007121
