2
Properties=species:S:1:pos:R:3:molID:I:1:forces_dft:R:3 Nmols=1 Comp=VC(1) energy_dft=-3083.653478437318 pbc="F F F"
C	1.8545793	-0.0824600	-1.6108593	0	0.0000431	-0.0001347	0.0001733
O	2.5996390	-0.9136797	-1.7374793	0	0.0020387	0.0079791	-0.0010607
