2
Properties=species:S:1:pos:R:3:molID:I:1:forces_dft:R:3 Nmols=1 Comp=VC(2) energy_dft=-3083.653451515175 pbc="F F F"
O	-2.5506790	-1.4103095	-0.9857796	0	0.0021560	-0.0015230	-0.0041148
C	-1.6193194	-0.9031796	-0.6149498	0	-0.0007243	-0.0001507	-0.0002795
