2
Properties=species:S:1:pos:R:3:molID:I:1:forces_dft:R:3 Nmols=1 Comp=VC(1) energy_dft=-3083.653460230715 pbc="F F F"
C	0.8170397	-2.9600588	-0.8764797	0	0.0012061	-0.0007112	0.0058649
O	1.0708696	-3.0743388	0.2118899	0	0.0020882	0.0030219	-0.0122911
