11
Properties=species:S:1:pos:R:3:molID:I:1:forces_dft:R:3 Nmols=1 Comp=VC(1) energy_dft=-8775.474256529149 pbc="F F F"
C	1.2784295	-0.1719599	0.2269799	0	-0.0020179	0.0009505	0.0031888
N	-0.1399700	0.0269300	-0.0203800	0	0.0081124	-0.0027044	0.0012048
C	-0.6909797	1.2937595	-0.0298600	0	0.0140680	0.0019151	-0.0078284
O	-0.0776199	2.3069791	0.1591099	0	-0.0135565	0.0190842	-0.0057444
C	-0.9421496	-1.0696596	-0.2582199	0	0.0025478	-0.0028147	0.0000316
O	-0.5394898	-2.1998891	-0.2721899	0	-0.0048519	-0.0110335	-0.0006924
H	1.7462993	-0.6300597	-0.6435098	0	-0.0022375	-0.0000957	-0.0022722
H	1.4148194	-0.8316597	1.0824296	0	-0.0018167	-0.0034913	0.0005311
H	1.7222593	0.7998097	0.4231698	0	0.0000121	-0.0001584	0.0029838
H	-1.7747393	1.2778395	-0.2314499	0	-0.0052566	-0.0041834	-0.0007763
H	-1.9968392	-0.8020797	-0.4360898	0	-0.0028945	0.0034446	-0.0028179
