12
Properties=species:S:1:pos:R:3:molID:I:1:forces_dft:R:3 Nmols=1 Comp=VC(1) energy_dft=-8337.340052530870 pbc="F F F"
O	2.1972292	0.2923699	1.2751895	0	-0.0020698	-0.0007541	-0.0107656
C	2.1383092	0.1327100	0.0931700	0	-0.0005090	0.0037710	0.0119722
O	1.0583196	-0.2461899	-0.5959298	0	0.0049536	-0.0051394	0.0020616
C	-0.1188799	-0.4511498	0.1618099	0	-0.0069412	-0.0046851	0.0026476
C	-1.3765795	-0.4760198	-0.6240898	0	0.0000824	-0.0041824	0.0123514
C	-1.0704096	0.6861297	0.2868099	0	-0.0043375	0.0033462	-0.0087773
H	2.9771488	0.2693299	-0.6029398	0	0.0015255	-0.0007534	-0.0019258
H	0.0216000	-1.1236596	0.9971196	0	0.0005142	-0.0008303	0.0018615
H	-1.2874195	-0.3062199	-1.6886993	0	-0.0002677	-0.0010625	-0.0029232
H	-2.1420792	-1.1831696	-0.3353199	0	-0.0018936	-0.0018173	0.0010968
H	-0.7812097	1.6172094	-0.1817599	0	0.0017481	0.0006141	-0.0025275
H	-1.6160294	0.7886597	1.2146495	0	-0.0016707	-0.0032754	0.0007485
