13
Properties=species:S:1:pos:R:3:molID:I:1:forces_dft:R:3 Nmols=1 Comp=VC(1) energy_dft=-10387.049272762590 pbc="F F F"
O	-0.9165696	1.3135395	0.4880398	0	-0.0071962	-0.0017720	0.0036131
C	-0.9839096	-0.0630600	0.3439899	0	-0.0015524	0.0068166	-0.0006792
C	-1.3167195	-0.5828198	-1.0163896	0	0.0049636	0.0019566	0.0042126
C	0.0592600	-0.7707297	-0.4674998	0	0.0017520	0.0023765	-0.0032123
O	1.0737196	-0.0123100	-1.0928896	0	-0.0032178	-0.0046525	-0.0027520
C	1.9610392	0.5792698	-0.2938999	0	0.0018214	0.0045237	0.0140347
O	1.9649592	0.5562798	0.9031197	0	-0.0026933	-0.0016951	-0.0116115
H	-0.2061999	1.5023994	1.1090696	0	0.0003892	0.0001953	0.0009326
H	-1.3663395	-0.6043598	1.2051795	0	0.0000808	-0.0004583	0.0018521
H	-1.9633492	-1.4432095	-1.1184296	0	-0.0017739	-0.0006671	-0.0020783
H	-1.4103595	0.1704699	-1.7878793	0	-0.0012471	0.0010797	-0.0019534
H	0.4003499	-1.7487693	-0.1518499	0	0.0015464	-0.0035373	-0.0005063
H	2.7041189	1.1032895	-0.9090996	0	0.0016873	0.0018888	-0.0010601
