13
Properties=species:S:1:pos:R:3:molID:I:1:forces_dft:R:3 Nmols=1 Comp=VC(1) energy_dft=-8807.505942467616 pbc="F F F"
O	-1.3336595	-0.5171098	1.4431695	0	-0.0020083	0.0023032	-0.0037278
C	-1.2681895	-0.6344697	0.0500600	0	-0.0014732	-0.0001450	-0.0024417
C	-0.5055098	0.5015098	-0.6316597	0	0.0084868	-0.0078247	0.0083944
N	0.9415097	0.3214899	-0.6949797	0	-0.0069663	0.0001725	0.0085261
C	1.7426393	0.1942999	0.3759298	0	-0.0023224	0.0026159	0.0063655
O	1.3703795	0.1261100	1.5312994	0	-0.0049413	-0.0053732	0.0019375
H	-0.4344998	-0.3418399	1.7615793	0	0.0089706	0.0001124	0.0028520
H	-2.2992191	-0.6136397	-0.3118699	0	-0.0043612	-0.0007918	-0.0044184
H	-0.8291897	-1.5930794	-0.2632999	0	0.0030196	-0.0005273	-0.0013247
H	-0.7388797	1.4365494	-0.1138399	0	-0.0015493	0.0034699	0.0014565
H	-0.8458097	0.5970398	-1.6635093	0	-0.0024731	-0.0021060	-0.0036055
H	1.3888594	0.3734798	-1.5923594	0	0.0033451	-0.0033403	-0.0048726
H	2.8115889	0.1496699	0.1094799	0	0.0044645	-0.0037129	0.0018903
