16
Properties=species:S:1:pos:R:3:molID:I:1:forces_dft:R:3 Nmols=1 Comp=VC(1) energy_dft=-7396.160029895548 pbc="F F F"
C	-1.1563595	-0.8896597	-0.5028598	0	-0.0022426	-0.0026095	0.0011490
C	-0.2389499	0.3139899	-0.3046599	0	0.0094133	0.0007987	0.0096240
C	-0.9889996	1.4716894	0.3478498	0	-0.0014273	-0.0020107	0.0025238
C	0.9884696	-0.0547900	0.5219698	0	0.0071576	0.0078055	-0.0094091
C	1.9940992	-0.9450196	-0.1537599	0	0.0009774	-0.0056595	-0.0155978
O	1.9536693	-1.2931795	-1.3021095	0	0.0021800	0.0028442	-0.0038938
H	-2.0165992	-0.6237498	-1.1203396	0	-0.0012901	-0.0030720	-0.0032393
H	-1.5377994	-1.2481795	0.4584298	0	-0.0026955	-0.0022473	0.0041872
H	-0.6353097	-1.7119993	-0.9933996	0	-0.0023801	-0.0027519	0.0014280
H	0.1134599	0.6366797	-1.2892495	0	-0.0000963	-0.0016702	-0.0033107
H	-0.3576299	2.3583491	0.4410898	0	-0.0001247	0.0018154	0.0016842
H	-1.8672593	1.7483093	-0.2388799	0	-0.0024986	0.0040263	0.0001614
H	-1.3333595	1.1991395	1.3500195	0	-0.0016239	-0.0014639	0.0023380
H	1.5450094	0.8422997	0.8251497	0	-0.0017994	-0.0000112	0.0033712
H	0.7008397	-0.5374898	1.4652794	0	0.0035808	0.0009515	0.0003384
H	2.8367189	-1.2663795	0.4954698	0	0.0014637	0.0016510	0.0011318
