12
Properties=species:S:1:pos:R:3:molID:I:1:forces_dft:R:3 Nmols=1 Comp=VC(1) energy_dft=-8339.240667899690 pbc="F F F"
O	2.3421891	-1.2532895	0.2282399	0	-0.0169231	-0.0032815	-0.0006202
C	1.3006695	-0.7447197	0.5347998	0	0.0031308	-0.0106214	-0.0058484
C	0.3305199	-0.1357899	-0.4310299	0	0.0036932	0.0081600	0.0048636
C	-1.1381396	-0.5415798	-0.2031999	0	0.0007414	-0.0052617	0.0078017
O	-1.4981494	0.7764497	0.2227399	0	0.0088296	0.0105024	-0.0016932
C	-0.1748999	1.2623995	-0.0242200	0	-0.0020089	0.0052283	0.0054225
H	0.9857396	-0.6938797	1.6011594	0	-0.0025573	0.0020993	0.0026126
H	0.7052897	-0.2339999	-1.4471194	0	0.0009890	0.0012941	-0.0026029
H	-1.6693293	-0.8424997	-1.1094396	0	0.0018766	-0.0027323	-0.0028542
H	-1.3121995	-1.2860895	0.5797898	0	-0.0056359	0.0000857	-0.0001491
H	0.2772899	1.6903794	0.8757497	0	0.0007045	0.0005885	0.0004255
H	-0.1489799	2.0026192	-0.8274797	0	-0.0006461	0.0009948	-0.0021584
