16
Properties=species:S:1:pos:R:3:molID:I:1:forces_dft:R:3 Nmols=1 Comp=VC(1) energy_dft=-8864.867266192048 pbc="F F F"
C	-1.3956095	-0.1201600	1.2454595	0	0.0035782	0.0034375	-0.0043970
C	-1.2581095	0.0667600	-0.2391699	0	-0.0035225	0.0039330	-0.0020665
N	-0.8679397	1.3886395	-0.7280497	0	0.0018230	-0.0025298	0.0066508
C	0.0338600	0.2568499	-0.9318296	0	0.0086943	0.0089534	0.0031258
C	1.3531295	0.3109299	-0.2153299	0	0.0002917	0.0005180	-0.0099894
C	1.9610392	-1.0367896	0.0531300	0	-0.0054039	-0.0055965	0.0051681
O	1.4707594	-2.0863892	-0.2625199	0	-0.0090744	0.0198744	0.0062607
H	-0.6695897	0.4814098	1.7917093	0	-0.0008177	-0.0020508	-0.0010436
H	-2.3891791	0.1869499	1.5774794	0	-0.0023273	0.0031213	0.0012120
H	-1.2540595	-1.1693496	1.5130694	0	-0.0022737	-0.0017623	0.0010941
H	-2.0056592	-0.4633898	-0.8232197	0	0.0023215	-0.0011913	-0.0022672
H	-1.3556595	1.6287293	-1.5809994	0	-0.0028596	-0.0013583	-0.0032588
H	0.0910700	-0.1634799	-1.9313693	0	-0.0015632	-0.0024573	-0.0015711
H	1.2650295	0.8392297	0.7385497	0	0.0008277	0.0007407	0.0015926
H	2.0842692	0.8921797	-0.7904597	0	-0.0000969	-0.0002916	-0.0025452
H	2.9366389	-1.0121096	0.5835598	0	0.0020348	-0.0028511	0.0034669
