10
Properties=species:S:1:pos:R:3:molID:I:1:forces_dft:R:3 Nmols=1 Comp=VC(1) energy_dft=-9676.803970116200 pbc="F F F"
O	2.5513890	0.4866998	-0.0242400	0	-0.0107341	-0.0088047	-0.0066435
C	1.7197993	-0.3294399	0.2273899	0	0.0078389	0.0087008	-0.0013053
N	0.3479499	-0.0931900	0.0588500	0	-0.0053072	-0.0045646	0.0047286
C	-0.2889799	1.0177496	-0.3939698	0	0.0003551	0.0042752	0.0034004
N	-1.5746294	0.8197997	-0.4006399	0	-0.0009903	0.0042093	-0.0004879
C	-1.6914293	-0.4606198	0.0681500	0	0.0145601	0.0123579	0.0001266
N	-0.5642698	-1.0490896	0.3569199	0	0.0116669	0.0029917	0.0002852
H	1.9017193	-1.3431695	0.6111797	0	-0.0057760	-0.0097355	-0.0020117
H	0.2402399	1.9080492	-0.6945397	0	-0.0118559	-0.0005327	-0.0060632
H	-2.6417890	-0.9567996	0.1909099	0	-0.0054136	-0.0085688	-0.0027395
