11
Properties=species:S:1:pos:R:3:molID:I:1:forces_dft:R:3 Nmols=1 Comp=VC(1) energy_dft=-8775.102772967422 pbc="F F F"
O	2.1057892	-0.8111797	-0.7200197	0	0.0074982	0.0089397	0.0184889
C	1.7765193	-0.2006499	0.2600799	0	-0.0005924	-0.0002472	-0.0095546
C	0.3662699	0.2336199	0.5344098	0	-0.0034121	-0.0024369	0.0044986
N	-0.5058298	-0.1823800	-0.5229298	0	0.0094099	0.0081902	-0.0058463
C	-1.8310393	0.0729400	-0.4911698	0	-0.0055767	-0.0024329	0.0031763
O	-2.3876591	0.6647997	0.4049598	0	0.0100562	0.0042657	-0.0087657
H	2.5145690	0.0817800	1.0340696	0	0.0023124	0.0013657	0.0000636
H	0.0564800	-0.1794999	1.5021494	0	0.0012548	-0.0048110	0.0021108
H	0.3584698	1.3229495	0.6648197	0	-0.0000462	0.0044019	0.0030296
H	-0.0904499	-0.6853297	-1.2905795	0	-0.0016695	-0.0041974	-0.0032924
H	-2.3631291	-0.3170499	-1.3757894	0	-0.0014857	-0.0021893	-0.0049785
