8
Properties=species:S:1:pos:R:3:molID:I:1:forces_dft:R:3 Nmols=1 Comp=VC(1) energy_dft=-6233.474153756501 pbc="F F F"
O	-1.4859394	0.2795899	0.0431700	0	-0.0047278	-0.0058028	0.0057983
C	-0.3565499	-0.5310798	0.0032300	0	0.0001916	-0.0006038	-0.0015093
C	0.9144697	0.2690099	-0.0224600	0	-0.0039363	0.0024661	-0.0043901
O	0.9095696	1.4709494	-0.0090800	0	-0.0054739	-0.0104008	0.0011266
H	-1.1688495	1.1925395	0.0481400	0	0.0116962	0.0080274	0.0019142
H	-0.3121399	-1.1984695	0.8761497	0	0.0015771	-0.0013851	0.0028390
H	-0.3605499	-1.1782095	-0.8858096	0	-0.0004127	-0.0000142	-0.0013211
H	1.8599893	-0.3043399	-0.0533500	0	0.0017674	-0.0009177	0.0002576
