14
Properties=species:S:1:pos:R:3:molID:I:1:forces_dft:R:3 Nmols=1 Comp=VC(1) energy_dft=-8832.279619399913 pbc="F F F"
O	-2.5279190	-0.3969298	-0.7385097	0	0.0031766	0.0010601	0.0062129
C	-2.1136591	0.5175398	-0.0636500	0	0.0006606	-0.0098259	-0.0041882
N	-1.0753796	0.4293698	0.7998097	0	0.0006301	-0.0041454	0.0018491
C	-0.2792899	-0.7719697	0.9077596	0	-0.0018535	-0.0013445	-0.0046106
C	0.8215697	-0.8560896	-0.1560900	0	0.0031248	0.0034076	0.0092860
C	1.7781293	0.2416199	-0.0450900	0	0.0028776	0.0119837	-0.0031867
C	2.5407090	1.1571395	0.0782400	0	-0.0086277	-0.0168617	-0.0043633
H	-2.5687790	1.5233694	-0.0814400	0	-0.0040936	0.0014402	0.0010395
H	-0.7243097	1.2793695	1.2049395	0	0.0032806	0.0023330	0.0028334
H	-0.9484996	-1.6243194	0.7950197	0	-0.0039236	-0.0019077	-0.0021839
H	0.1603900	-0.8076997	1.9052592	0	0.0022378	-0.0006890	0.0024221
H	1.3475794	-1.8088693	-0.0570800	0	0.0028362	-0.0021559	-0.0025845
H	0.3592499	-0.8446397	-1.1457795	0	-0.0015843	-0.0003148	-0.0015853
H	3.2302088	1.9621192	0.1757299	0	-0.0007159	0.0038058	0.0015696
