12
Properties=species:S:1:pos:R:3:molID:I:1:forces_dft:R:3 Nmols=1 Comp=VC(1) energy_dft=-6763.566052037905 pbc="F F F"
C	1.9652192	0.1012500	-0.0001900	0	-0.0061297	-0.0028039	0.0008807
N	0.6214498	0.6294697	-0.0012500	0	0.0061716	-0.0102895	-0.0020437
C	-0.4810598	-0.1650699	-0.0009900	0	-0.0020366	-0.0092948	0.0110619
O	-0.4219598	-1.3780895	-0.0015700	0	0.0011458	0.0091896	-0.0058034
C	-1.8071293	0.5616798	0.0002700	0	0.0065548	0.0042357	-0.0033468
H	1.8927992	-0.9843196	0.0071400	0	0.0011715	-0.0102427	0.0000402
H	2.5154490	0.4250998	0.8858497	0	-0.0013956	0.0045871	0.0050891
H	2.5128090	0.4129598	-0.8922496	0	-0.0020530	0.0049727	-0.0051873
H	0.4915698	1.6239993	-0.0041400	0	-0.0006953	0.0100178	-0.0020994
H	-2.3629791	0.2626999	0.8887797	0	0.0005134	-0.0051633	0.0038933
H	-2.3781391	0.2381799	-0.8696696	0	-0.0012368	-0.0058408	-0.0031575
H	-1.7138993	1.6480094	-0.0153000	0	-0.0000203	0.0071027	-0.0009542
