12
Properties=species:S:1:pos:R:3:molID:I:1:forces_dft:R:3 Nmols=1 Comp=VC(1) energy_dft=-8234.346238428523 pbc="F F F"
C	-1.9620292	0.5289998	-0.0451200	0	0.0073584	-0.0003011	-0.0031452
C	-0.4706198	0.7507897	-0.0154300	0	-0.0006538	0.0100059	0.0011369
O	0.0417000	1.8443293	-0.0029600	0	0.0080892	-0.0180502	-0.0009016
N	0.2748999	-0.4103698	0.0011600	0	-0.0007369	0.0065350	-0.0016452
C	1.6565593	-0.4378098	0.0375300	0	0.0043210	-0.0095366	0.0013072
N	2.2647291	-1.5447594	0.0532500	0	-0.0087524	0.0064221	-0.0005003
H	-2.4603090	1.4919594	-0.1108999	0	-0.0042189	0.0020573	0.0053669
H	-2.2439491	-0.0888800	-0.8997296	0	-0.0013342	-0.0060412	-0.0017341
H	-2.2858891	0.0166100	0.8631297	0	-0.0039523	-0.0014681	0.0042938
H	-0.1844299	-1.3071795	-0.0095800	0	-0.0023804	-0.0051065	0.0011412
H	2.1013992	0.5567098	0.0491000	0	0.0025907	0.0014404	-0.0013274
H	3.2679287	-1.4003995	0.0795400	0	0.0091256	0.0035753	-0.0003830
