14
Properties=species:S:1:pos:R:3:molID:I:1:forces_dft:R:3 Nmols=1 Comp=VC(1) energy_dft=-8374.045075615644 pbc="F F F"
C	-0.1649399	1.4079594	-0.0763500	0	0.0000594	-0.0043614	-0.0046260
C	-0.2162099	-0.0987500	-0.2370799	0	0.0065275	0.0088716	0.0080566
C	-1.5260094	-0.7062797	0.2150299	0	0.0030162	0.0019657	-0.0025941
O	0.8125397	-0.7078997	0.5828098	0	-0.0139679	-0.0024057	0.0084659
C	2.0451292	-0.7483397	0.0885200	0	0.0089651	0.0081387	-0.0124780
O	2.3989390	-0.3302599	-0.9762396	0	-0.0076521	-0.0021389	0.0126185
H	-0.9562296	1.8715692	-0.6678997	0	-0.0029414	-0.0000852	-0.0010145
H	-0.3118099	1.6835493	0.9699896	0	0.0035557	-0.0000287	0.0032923
H	0.7911897	1.8025893	-0.4186798	0	0.0011134	0.0023819	-0.0026190
H	-0.0065000	-0.3662099	-1.2748195	0	-0.0005331	0.0030944	-0.0057129
H	-1.5111894	-1.7904793	0.1007800	0	0.0000135	-0.0048953	0.0017266
H	-2.3466691	-0.3078699	-0.3833598	0	-0.0021064	0.0013587	-0.0031771
H	-1.7183893	-0.4712798	1.2635995	0	-0.0003786	0.0030439	0.0051434
H	2.7101489	-1.2382995	0.8136997	0	0.0001753	-0.0061838	0.0022702
