9
Properties=species:S:1:pos:R:3:molID:I:1:forces_dft:R:3 Nmols=1 Comp=VC(1) energy_dft=-5693.414183754492 pbc="F F F"
C	-1.0724196	0.0539000	0.3149499	0	-0.0001301	-0.0019824	0.0023920
N	0.1073400	0.1900599	-0.5088598	0	-0.0109617	-0.0051289	0.0064284
C	1.3384494	-0.1940999	-0.1014600	0	0.0063951	-0.0062128	0.0018067
O	1.5976793	-0.6985297	0.9660796	0	-0.0017679	-0.0008425	-0.0084590
H	-0.8022097	-0.5372398	1.1872595	0	0.0016576	-0.0016081	0.0014497
H	-1.4407794	1.0253796	0.6519897	0	-0.0028744	0.0023874	-0.0017535
H	-1.8672393	-0.4588498	-0.2288299	0	-0.0011233	-0.0008207	-0.0014211
H	0.0288900	0.6180397	-1.4135295	0	0.0018276	0.0047525	-0.0038088
H	2.1102892	0.0013400	-0.8675997	0	-0.0001419	0.0003872	-0.0009759
