10
Properties=species:S:1:pos:R:3:molID:I:1:forces_dft:R:3 Nmols=1 Comp=VC(1) energy_dft=-5256.352024104276 pbc="F F F"
C	-1.1481496	0.2521799	0.1360199	0	0.0045327	0.0007042	-0.0051611
C	0.1135700	-0.5613198	-0.0844300	0	-0.0013462	0.0000851	0.0046791
C	1.3779394	0.2514399	-0.0903899	0	-0.0042921	0.0087076	-0.0006791
O	1.4282594	1.4422394	0.0512200	0	-0.0005642	-0.0087243	0.0006482
H	-1.1115896	0.7761097	1.0913996	0	-0.0022395	0.0024845	0.0011755
H	-2.0296192	-0.3897399	0.1292499	0	-0.0031234	-0.0014978	-0.0042735
H	-1.2668495	1.0067896	-0.6418897	0	-0.0007809	0.0021402	-0.0017965
H	0.2399999	-1.3352995	0.6821297	0	0.0026639	0.0002762	0.0020751
H	0.0858400	-1.1085296	-1.0344396	0	-0.0000110	-0.0014146	-0.0000995
H	2.3106091	-0.3338699	-0.2388599	0	0.0035331	-0.0056427	0.0025915
