6
Properties=species:S:1:pos:R:3:molID:I:1:forces_dft:R:3 Nmols=1 Comp=VC(1) energy_dft=-5188.202481617095 pbc="F F F"
O	-1.7793193	0.6959997	-0.7475397	0	0.0149438	-0.0010205	0.0145701
C	-1.1131395	-0.0336700	-0.0662200	0	-0.0038785	0.0079416	-0.0103256
C	0.3362999	0.0303800	0.0030100	0	0.0146080	0.0016282	0.0014622
C	1.5309394	0.0477400	0.0898200	0	-0.0194287	-0.0009106	-0.0007018
H	-1.5688594	-0.8168997	0.5646198	0	-0.0014663	-0.0025148	0.0007158
H	2.5940690	0.0764400	0.1563099	0	0.0050019	-0.0004822	0.0000444
