14
Properties=species:S:1:pos:R:3:molID:I:1:forces_dft:R:3 Nmols=1 Comp=VC(1) energy_dft=-8370.638172792096 pbc="F F F"
C	-2.1154691	0.0566200	-0.0870800	0	-0.0003494	0.0040966	0.0008228
C	-0.8020497	0.6099697	0.4501698	0	-0.0000365	-0.0051445	-0.0031869
C	0.3733499	-0.2376399	0.0202400	0	0.0072579	0.0072215	0.0029611
O	1.5678394	0.3465799	0.5643298	0	0.0058919	-0.0048519	-0.0004891
C	2.7078489	-0.2698899	0.2681399	0	0.0004115	-0.0084705	-0.0047468
O	2.8192789	-1.2541195	-0.4030698	0	0.0008976	0.0083583	0.0032059
H	-2.2975091	-0.9581496	0.2742699	0	-0.0019593	-0.0039987	0.0004817
H	-2.9564388	0.6756898	0.2265999	0	-0.0013713	0.0021840	0.0015332
H	-2.1166692	0.0247800	-1.1790995	0	0.0002590	-0.0014617	-0.0042467
H	-0.8280397	0.6536598	1.5420594	0	0.0004876	-0.0000700	0.0041164
H	-0.6496498	1.6332694	0.0975500	0	-0.0003588	0.0033478	0.0018745
H	0.2863699	-1.2644595	0.3843298	0	-0.0004291	-0.0038786	-0.0017246
H	0.4653298	-0.2803099	-1.0679596	0	-0.0001323	-0.0011721	-0.0061591
H	3.5457986	0.2639899	0.7373597	0	0.0038393	0.0039374	-0.0014875
