11
Properties=species:S:1:pos:R:3:molID:I:1:forces_dft:R:3 Nmols=1 Comp=VC(1) energy_dft=-9238.286154056115 pbc="F F F"
O	-2.2227691	-1.4142495	0.0826700	0	0.0066291	0.0015769	-0.0033397
C	-1.8305993	-0.2728199	0.0048700	0	-0.0035566	-0.0050067	0.0026439
C	-0.4260498	0.0848400	-0.0084700	0	0.0095111	-0.0012852	0.0023417
C	0.2337799	1.2874995	-0.0867100	0	0.0192379	0.0034455	0.0003319
N	1.5790394	1.0964996	-0.0635300	0	0.0038051	0.0132681	0.0009306
C	1.7402193	-0.2054999	0.0274900	0	-0.0036298	0.0081385	0.0008538
N	0.5668798	-0.8598897	0.0643800	0	0.0032752	0.0110823	-0.0032020
H	-2.5350790	0.5760398	-0.0626600	0	-0.0070488	-0.0038101	-0.0001213
H	-0.2007099	2.2732891	-0.1574499	0	-0.0076234	-0.0000128	0.0018555
H	2.6911089	-0.7150197	0.0680999	0	-0.0059845	-0.0094214	-0.0023559
H	0.4041898	-1.8506793	0.1313099	0	-0.0065956	-0.0179099	0.0004245
