18
Properties=species:S:1:pos:R:3:molID:I:1:forces_dft:R:3 Nmols=1 Comp=VC(1) energy_dft=-8903.262738334899 pbc="F F F"
C	-1.7971993	-0.5820598	-1.0555496	0	0.0049213	-0.0062595	-0.0013956
C	-1.2827795	0.3385999	0.0425600	0	0.0019338	0.0023507	0.0032315
C	0.2388999	0.4347398	0.1064899	0	0.0018864	-0.0114082	0.0019418
C	0.7138297	1.4954194	1.0931196	0	-0.0037529	-0.0021373	-0.0003967
N	0.8058497	-0.8677596	0.4273198	0	-0.0028024	0.0035408	-0.0016860
C	1.9986192	-1.2918595	-0.0435700	0	0.0032920	0.0077225	-0.0086525
O	2.7047090	-0.6762997	-0.8095597	0	-0.0062420	-0.0057641	-0.0055854
H	-1.4622994	-0.2408099	-2.0374692	0	0.0002243	-0.0081822	-0.0033285
H	-1.4368794	-1.6040194	-0.9242596	0	0.0024636	-0.0043950	-0.0008840
H	-2.8878289	-0.6112198	-1.0650896	0	-0.0043095	-0.0031130	-0.0014132
H	-1.6769393	1.3473295	-0.1059600	0	0.0001909	0.0022133	0.0028776
H	-1.6608493	0.0109600	1.0192796	0	-0.0000146	0.0055242	0.0012629
H	0.6230398	0.6860897	-0.8851897	0	0.0052515	-0.0017257	-0.0029600
H	0.3416198	2.4813290	0.8080497	0	-0.0020050	0.0037410	0.0053564
H	0.3581699	1.2755995	2.1034091	0	-0.0013893	-0.0005839	0.0023889
H	1.8033593	1.5337494	1.1110496	0	0.0033843	-0.0010279	0.0007732
H	0.3424499	-1.4391895	1.1132095	0	-0.0015156	-0.0014933	0.0040287
H	2.2742291	-2.2905891	0.3418899	0	0.0004325	-0.0052403	-0.0003835
