12
Properties=species:S:1:pos:R:3:molID:I:1:forces_dft:R:3 Nmols=1 Comp=VC(1) energy_dft=-7328.292436479800 pbc="F F F"
O	-2.5478090	-0.1741899	-0.6577698	0	-0.0007545	-0.0018160	0.0103945
C	-2.0658592	-0.2035399	0.4410498	0	-0.0004983	0.0032574	-0.0111901
C	-0.5958198	-0.0946000	0.7302297	0	-0.0039843	-0.0013559	-0.0023325
C	0.2567399	0.0703200	-0.5236298	0	0.0048030	0.0015776	0.0064569
C	1.6784493	0.1754699	-0.2102499	0	0.0136117	0.0016913	0.0045640
C	2.8394889	0.2613999	0.0695200	0	-0.0186758	-0.0037952	-0.0020591
H	-2.7121789	-0.3180099	1.3360195	0	-0.0017211	0.0017224	0.0024147
H	-0.3008799	-0.9856096	1.2953695	0	0.0026060	-0.0021491	0.0001033
H	-0.4515398	0.7432397	1.4208995	0	-0.0005802	-0.0009244	0.0003712
H	0.0898200	-0.7733097	-1.1965695	0	0.0012247	0.0009796	-0.0029355
H	-0.0641000	0.9585496	-1.0721396	0	-0.0035335	0.0016650	-0.0015370
H	3.8736985	0.3402899	0.3081499	0	0.0045125	0.0035399	0.0027657
