13
Properties=species:S:1:pos:R:3:molID:I:1:forces_dft:R:3 Nmols=1 Comp=VC(1) energy_dft=-6326.234043659840 pbc="F F F"
C	-1.7728393	0.0678000	0.2765099	0	-0.0002872	-0.0039758	-0.0037131
C	-0.4839398	-0.0996300	-0.5165398	0	0.0028484	0.0046189	0.0038216
C	0.7551697	0.0763300	0.3445099	0	-0.0009225	-0.0041126	-0.0034905
C	2.0580092	-0.0748300	-0.3882599	0	0.0023116	0.0002300	-0.0094918
O	2.1634892	-0.3100699	-1.5607294	0	-0.0026360	-0.0008357	0.0106626
H	-1.8318893	1.0585896	0.7341697	0	0.0018425	0.0017532	0.0024599
H	-1.8460993	-0.6703597	1.0792596	0	-0.0020005	-0.0010923	0.0041877
H	-2.6479289	-0.0532100	-0.3636499	0	-0.0017787	-0.0022219	-0.0018294
H	-0.4547698	-1.0857595	-0.9860196	0	-0.0015574	-0.0016163	-0.0039437
H	-0.4501498	0.6188597	-1.3389195	0	-0.0001432	0.0003494	-0.0039263
H	0.7727297	1.0632096	0.8253097	0	-0.0007676	0.0009899	0.0032893
H	0.7720497	-0.6389597	1.1771295	0	0.0018984	0.0000117	0.0027807
H	2.9661789	0.0480300	0.2400299	0	0.0029086	-0.0003599	0.0027579
