19
Properties=species:S:1:pos:R:3:molID:I:1:forces_dft:R:3 Nmols=1 Comp=VC(1) energy_dft=-8461.380479546691 pbc="F F F"
C	-2.4655790	-0.6708998	0.2817999	0	0.0037635	0.0063908	-0.0053181
C	-1.0747896	-0.9420696	-0.2778199	0	-0.0057867	0.0028042	0.0067138
C	-0.0118800	0.0487100	0.2105499	0	-0.0013368	0.0013554	-0.0018989
C	1.3873495	-0.3388399	-0.2814299	0	0.0011027	0.0015512	0.0028436
C	2.4982290	0.5424798	0.2755299	0	-0.0027083	-0.0007292	-0.0051868
C	-0.3503299	1.4282195	-0.2933199	0	-0.0028640	0.0141519	0.0110781
O	-0.5800497	2.3885091	0.3882399	0	0.0054651	-0.0164494	-0.0001933
H	-3.1816588	-1.4152994	-0.0694000	0	-0.0019927	-0.0042176	0.0013363
H	-2.4604991	-0.6996397	1.3735794	0	0.0009765	0.0034585	0.0046989
H	-2.8360789	0.3124199	-0.0162300	0	0.0016902	0.0021098	0.0011750
H	-0.7534697	-1.9498292	-0.0001400	0	0.0013335	-0.0029261	-0.0026093
H	-1.1023796	-0.9253496	-1.3736095	0	0.0011509	0.0010648	-0.0050664
H	-0.0205700	0.0913900	1.3042995	0	-0.0009436	0.0049124	0.0055207
H	1.4009294	-0.3097899	-1.3772494	0	0.0003578	-0.0027910	-0.0031650
H	1.5679594	-1.3818095	-0.0065400	0	-0.0004458	-0.0030624	-0.0003265
H	3.4744386	0.2142699	-0.0844400	0	0.0037767	0.0010289	-0.0010174
H	2.5142790	0.5086598	1.3670795	0	-0.0016542	0.0014870	0.0047744
H	2.3708991	1.5875994	-0.0153400	0	0.0010836	0.0037593	0.0000676
H	-0.3768098	1.5112694	-1.4055595	0	0.0009623	0.0019982	-0.0047395
