5
Properties=species:S:1:pos:R:3:molID:I:1:forces_dft:R:3 Nmols=1 Comp=VC(1) energy_dft=-5626.067407080524 pbc="F F F"
O	-1.2704395	-0.9718096	0.0646100	0	0.0159704	0.0186864	-0.0003183
C	-0.5986897	0.0140000	0.0562600	0	-0.0089059	-0.0124356	0.0021059
C	0.8686297	-0.0364200	-0.0820700	0	0.0051893	-0.0025224	0.0000425
N	2.0107892	-0.0368200	-0.1879599	0	-0.0040970	-0.0015772	-0.0006262
H	-1.0102896	1.0310496	0.1491600	0	-0.0017453	0.0036221	0.0005632
