8
Properties=species:S:1:pos:R:3:molID:I:1:forces_dft:R:3 Nmols=1 Comp=VC(1) energy_dft=-6232.290503764726 pbc="F F F"
C	-1.0188796	-0.1458000	-0.0312800	0	0.0073618	0.0001836	0.0070034
O	0.2785999	-0.7450497	-0.0690000	0	-0.0098642	-0.0055876	0.0023355
C	1.3036195	0.0976600	0.0308100	0	0.0009696	0.0154304	0.0001629
O	1.2223895	1.2856495	0.1413900	0	-0.0010077	-0.0083272	-0.0010559
H	-1.1400696	0.5544498	-0.8576096	0	-0.0028855	-0.0000951	-0.0042925
H	-1.1642795	0.3855598	0.9091196	0	0.0023773	0.0039380	0.0025201
H	-1.7264893	-0.9653796	-0.1205700	0	-0.0017536	-0.0034018	0.0005481
H	2.2450991	-0.4670898	-0.0028600	0	0.0036334	-0.0013505	0.0019664
