11
Properties=species:S:1:pos:R:3:molID:I:1:forces_dft:R:3 Nmols=1 Comp=VC(1) energy_dft=-8775.130564506053 pbc="F F F"
C	-1.0243596	1.3950195	-0.0230900	0	0.0013805	-0.0008501	0.0012854
N	0.0939400	0.4850098	-0.0983900	0	-0.0062428	-0.0002978	-0.0004647
C	-0.0090000	-0.8301297	0.1410900	0	-0.0098588	-0.0087131	0.0074616
O	-1.0119296	-1.4420494	0.4460498	0	0.0103344	0.0090712	-0.0045640
C	1.3181195	-1.5803394	-0.0060900	0	0.0104083	0.0125183	0.0011524
O	2.3480490	-1.0451096	-0.3037699	0	-0.0147315	0.0015135	0.0008382
H	-1.9076992	0.8204497	0.2476699	0	-0.0015323	-0.0013321	0.0048194
H	-0.8526397	2.1606592	0.7354097	0	0.0024643	-0.0003636	0.0015309
H	-1.1966695	1.8798793	-0.9854996	0	-0.0000277	0.0028458	-0.0034357
H	1.0123196	0.8205697	-0.3418199	0	0.0085038	0.0017998	-0.0008932
H	1.2298795	-2.6639589	0.1884399	0	-0.0018062	-0.0051018	0.0009264
