13
Properties=species:S:1:pos:R:3:molID:I:1:forces_dft:R:3 Nmols=1 Comp=VC(1) energy_dft=-10281.152835670666 pbc="F F F"
C	-1.8322893	0.0187500	-1.0565796	0	0.0098020	-0.0027315	0.0045807
O	-1.1692395	-0.0375900	0.1933299	0	0.0023440	-0.0010155	-0.0035280
C	0.1780699	0.0031500	0.1798799	0	0.0144389	-0.0170131	-0.0050662
N	0.9720096	0.0829300	-0.7965097	0	-0.0055829	0.0045340	0.0046198
N	0.6215098	-0.0559400	1.4905594	0	-0.0061725	0.0043823	0.0089764
C	1.9435892	-0.0399600	1.8687593	0	0.0041203	-0.0002132	0.0114764
O	2.2872891	-0.0950100	3.0200088	0	-0.0064426	0.0043312	-0.0029169
H	-2.8948389	-0.0256400	-0.8332197	0	-0.0057879	-0.0025068	-0.0020711
H	-1.5590294	-0.8319397	-1.6857893	0	0.0025142	-0.0001196	-0.0033432
H	-1.6102794	0.9533496	-1.5775994	0	0.0048524	0.0023176	-0.0009553
H	0.5056198	0.1181899	-1.6923993	0	-0.0061764	-0.0002550	-0.0026795
H	-0.0706300	-0.1183800	2.2197391	0	-0.0015520	0.0026318	0.0007031
H	2.6281990	0.0280800	1.0130796	0	0.0003537	0.0026035	-0.0008808
