12
Properties=species:S:1:pos:R:3:molID:I:1:forces_dft:R:3 Nmols=1 Comp=VC(1) energy_dft=-8236.848991868701 pbc="F F F"
C	-0.9666996	0.4437298	0.8079497	0	0.0059234	-0.0014393	-0.0054453
C	-0.3498999	0.3575199	-0.5605298	0	-0.0070659	0.0032650	-0.0044492
N	-0.7935897	0.8900297	-1.6197894	0	0.0090864	-0.0025622	-0.0006202
N	0.8268297	-0.3780999	-0.6833697	0	-0.0046678	0.0037361	0.0065126
C	1.5145794	-1.0532196	0.2855499	0	0.0077106	0.0020158	-0.0018874
O	2.5303590	-1.6634493	0.0745000	0	0.0123273	0.0062349	0.0047899
H	-1.8717093	1.0455096	0.7618597	0	-0.0030886	-0.0008737	-0.0015951
H	-0.2809399	0.9038797	1.5214994	0	0.0020753	0.0031900	0.0009842
H	-1.2302995	-0.5464098	1.1841095	0	0.0011388	-0.0037091	0.0018524
H	-1.6484993	1.4042794	-1.4398795	0	-0.0051012	0.0008655	0.0005427
H	1.2131195	-0.4111298	-1.6168694	0	0.0029191	-0.0001468	-0.0068787
H	1.0567596	-0.9926396	1.2849795	0	-0.0074597	-0.0024669	0.0030235
