15
Properties=species:S:1:pos:R:3:molID:I:1:forces_dft:R:3 Nmols=1 Comp=VC(1) energy_dft=-9406.628994405244 pbc="F F F"
C	-0.2925899	1.5053094	-0.2410899	0	0.0081165	-0.0025946	0.0045565
C	-0.1381400	0.0813500	0.2088499	0	-0.0031035	0.0029755	-0.0037156
C	-0.8620096	-1.0411296	-0.4498998	0	-0.0004762	0.0015543	-0.0069402
C	-1.2209695	-0.6190898	0.9532696	0	0.0042320	0.0000674	-0.0008333
O	1.1628795	-0.2175299	0.7121497	0	-0.0067129	-0.0099935	-0.0018233
C	2.1518592	-0.3512099	-0.1749799	0	0.0026954	-0.0009115	-0.0118143
O	2.0649092	-0.2457599	-1.3618995	0	-0.0014166	-0.0001457	0.0064622
H	0.3471398	1.7134993	-1.0985196	0	0.0029563	-0.0022687	-0.0008789
H	-0.0366800	2.1893691	0.5703398	0	0.0011747	0.0021259	0.0013848
H	-1.3272395	1.6927293	-0.5299198	0	-0.0024796	0.0000678	0.0018009
H	-1.5343894	-0.7963997	-1.2612495	0	-0.0040671	-0.0016036	0.0000800
H	-0.3299198	-1.9748892	-0.5685598	0	0.0002450	-0.0009478	0.0034446
H	-2.1467492	-0.0832600	1.1167096	0	-0.0030656	-0.0000177	-0.0059326
H	-0.9201196	-1.2729095	1.7605693	0	-0.0012903	-0.0023059	0.0004168
H	3.0820488	-0.5800798	0.3642298	0	0.0047700	-0.0025265	0.0001878
