12
Properties=species:S:1:pos:R:3:molID:I:1:forces_dft:R:3 Nmols=1 Comp=VC(1) energy_dft=-8800.080999184887 pbc="F F F"
O	-1.9907192	-1.0548296	1.5967894	0	-0.0013582	0.0043544	-0.0046280
C	-0.9949696	-0.8988996	0.9479996	0	-0.0094404	-0.0049655	0.0036685
C	-0.5429798	0.4288199	0.4581298	0	0.0059772	0.0011107	-0.0009832
C	0.9304696	0.7157997	0.4320398	0	-0.0028669	-0.0036494	0.0074778
C	0.2035999	0.5289298	-0.8610897	0	0.0010269	0.0045850	0.0042673
C	0.4511098	-0.6550097	-1.6442093	0	-0.0049571	-0.0041065	-0.0092716
N	0.6580998	-1.5952794	-2.2687991	0	-0.0049695	0.0035625	0.0034956
H	-0.3379898	-1.7536293	0.6854397	0	0.0040026	0.0016825	-0.0007023
H	-1.2204495	1.2411995	0.6847898	0	-0.0008545	-0.0031841	0.0007192
H	1.5994194	-0.0785400	0.7374397	0	0.0014540	-0.0000741	-0.0033230
H	1.2536395	1.7145993	0.6879297	0	0.0043365	0.0022886	0.0024348
H	-0.0092300	1.4068394	-1.4564494	0	-0.0011269	0.0018817	-0.0030866
