9
Properties=species:S:1:pos:R:3:molID:I:1:forces_dft:R:3 Nmols=1 Comp=VC(1) energy_dft=-7164.897012384697 pbc="F F F"
N	-1.0160596	0.7974697	1.6986993	0	0.0018043	-0.0132207	0.0105698
C	-0.6419798	0.4715398	0.5395198	0	-0.0062726	0.0019031	0.0008102
N	0.4734498	-0.3190699	0.3515599	0	-0.0057176	-0.0045477	0.0000079
C	0.9422696	-0.7188997	-0.8708597	0	0.0109888	-0.0023296	-0.0019004
O	1.9131792	-1.4079194	-1.0282496	0	-0.0119398	-0.0070945	0.0034230
H	-1.8467893	1.3769395	1.6639193	0	-0.0049897	0.0026429	-0.0037289
H	-1.1283396	0.7620497	-0.3956798	0	0.0008206	0.0026750	-0.0009519
H	0.9744696	-0.6226998	1.1747696	0	0.0012264	-0.0019663	0.0026629
H	0.3297899	-0.3393998	-1.7079494	0	-0.0013719	0.0012015	-0.0033535
