12
Properties=species:S:1:pos:R:3:molID:I:1:forces_dft:R:3 Nmols=1 Comp=VC(1) energy_dft=-8336.819383859376 pbc="F F F"
O	2.5476890	-1.5617994	0.5386598	0	0.0033973	0.0067242	0.0002074
C	2.3487891	-0.7371397	-0.2208599	0	-0.0049067	0.0099656	0.0001165
O	1.1970295	0.6659497	0.1744999	0	0.0198595	-0.0045137	0.0098800
C	-0.0555600	0.2424799	0.5818198	0	0.0052232	0.0065415	0.0004078
C	-0.9879096	-0.4368598	-0.3858398	0	0.0000596	0.0028562	0.0012455
C	-1.2619595	0.9680196	0.0860900	0	0.0001597	-0.0028063	-0.0093956
H	1.8870293	0.0820299	-0.8955896	0	0.0044984	-0.0027844	0.0042397
H	-0.0845799	-0.1109900	1.6088094	0	0.0008441	-0.0029359	0.0021851
H	-0.6544698	-0.5514098	-1.4100494	0	-0.0065361	-0.0047508	-0.0051713
H	-1.6162894	-1.2408695	-0.0256500	0	-0.0035179	-0.0020658	0.0008178
H	-1.0787596	1.7669093	-0.6201698	0	0.0011057	-0.0030917	-0.0050133
H	-2.0828192	1.1378096	0.7701997	0	0.0000816	0.0017215	0.0014374
