13
Properties=species:S:1:pos:R:3:molID:I:1:forces_dft:R:3 Nmols=1 Comp=VC(1) energy_dft=-8806.641011557531 pbc="F F F"
O	-1.2432695	-0.6591598	1.3602495	0	0.0037396	0.0001104	-0.0003775
C	-1.2863695	-0.5804498	-0.0368600	0	0.0003780	0.0009674	0.0022831
C	-0.4327098	0.5446098	-0.6103697	0	0.0062477	-0.0052911	0.0033728
N	1.0009496	0.2416899	-0.6102598	0	0.0024925	0.0062962	-0.0009218
C	1.9956992	0.1908799	0.6670797	0	-0.0026797	-0.0012557	0.0073565
O	1.5164094	0.0743700	1.7432193	0	0.0033392	-0.0028365	-0.0121817
H	-0.3285099	-0.5599298	1.6602593	0	0.0080091	-0.0003288	0.0038529
H	-2.3285791	-0.3947799	-0.3075399	0	-0.0054611	-0.0039839	-0.0007072
H	-0.9916296	-1.5318294	-0.5056298	0	0.0032810	-0.0018427	-0.0013772
H	-0.5786798	1.4419994	-0.0044700	0	0.0008255	0.0031154	0.0027156
H	-0.7424897	0.7743197	-1.6328694	0	-0.0011502	0.0001447	-0.0031624
H	1.3130395	-0.4283898	-1.3074395	0	-0.0030516	-0.0022120	-0.0041588
H	2.1061392	0.8866697	-0.4153798	0	0.0018778	-0.0028086	0.0049214
