12
Properties=species:S:1:pos:R:3:molID:I:1:forces_dft:R:3 Nmols=1 Comp=VC(1) energy_dft=-9345.405992248463 pbc="F F F"
O	-1.1822195	0.6837797	1.7147693	0	-0.0048487	-0.0000205	0.0089700
C	-1.2207695	-0.1577999	0.5863698	0	0.0026846	-0.0035823	0.0056447
C	0.1581899	-0.6898497	0.2467999	0	-0.0059252	0.0029239	-0.0030848
O	1.0302996	0.3962299	0.0181400	0	0.0251560	-0.0067419	0.0024041
C	1.5633194	0.6382097	-1.7353593	0	-0.0072696	-0.0029705	0.0158974
O	0.8098197	0.6104497	-2.5884290	0	0.0089259	-0.0000107	-0.0215117
H	-0.4534798	1.2955695	1.5731394	0	0.0013542	0.0020211	-0.0019520
H	-1.6251393	0.3724098	-0.2871399	0	-0.0014957	-0.0019581	-0.0073681
H	-1.8951093	-0.9842896	0.8221497	0	-0.0049768	0.0006291	-0.0017668
H	0.0856699	-1.3405695	-0.6390798	0	-0.0023763	-0.0008871	-0.0033449
H	0.5426898	-1.2881095	1.0797296	0	0.0011333	0.0000391	-0.0008146
H	2.1727092	0.4061099	-0.7706497	0	0.0001658	0.0060367	-0.0062151
