12
Properties=species:S:1:pos:R:3:molID:I:1:forces_dft:R:3 Nmols=1 Comp=VC(1) energy_dft=-8229.171630646695 pbc="F F F"
C	-1.2640695	-0.5434898	-0.3247399	0	0.0423838	0.0239313	0.0196267
C	-0.3525399	1.3592494	0.1061499	0	0.0211169	0.0093355	0.0034595
O	-0.6815098	2.4177291	-0.1488799	0	-0.0052293	0.0014130	-0.0017042
N	1.4418894	0.8558097	0.8492297	0	-0.0094376	0.0057522	-0.0126196
C	1.5198994	-0.2364999	0.1115899	0	0.0042029	0.0020935	-0.0018561
N	0.6371597	-1.2008995	0.2653299	0	-0.0201834	0.0107653	0.0046508
H	-1.7025693	0.1036900	-1.0804896	0	-0.0066425	-0.0071940	-0.0038977
H	-1.1908295	-1.5436594	-0.7337097	0	-0.0056233	-0.0119204	-0.0010623
H	-1.8200893	-0.5324798	0.6028498	0	-0.0037628	-0.0078680	-0.0006695
H	0.9198696	0.6152498	1.6918694	0	-0.0098372	-0.0054187	0.0045103
H	2.1911491	-0.2008599	-0.7501497	0	-0.0087101	-0.0014484	-0.0021579
H	0.7781997	-1.9351792	-0.4241598	0	-0.0021146	-0.0073331	-0.0020719
