12
Properties=species:S:1:pos:R:3:molID:I:1:forces_dft:R:3 Nmols=1 Comp=VC(1) energy_dft=-7321.947092855782 pbc="F F F"
O	-2.5204490	0.7195497	-0.7125397	0	0.0001245	-0.0171627	-0.0169477
C	-2.4943390	-0.0399500	0.1682199	0	0.0123832	0.0097367	-0.0004520
C	-0.5704298	-0.1818299	0.8701597	0	0.0117088	0.0079256	0.0003342
C	0.2526599	-0.1906199	-0.3996598	0	0.0001604	-0.0001166	0.0095664
C	1.6553194	0.1561699	-0.1745299	0	0.0063670	0.0041691	0.0050733
C	2.7991789	0.4417898	0.0374200	0	-0.0264916	-0.0036056	-0.0031396
H	-2.1386192	-0.7123997	0.9631596	0	0.0006964	-0.0057072	-0.0014978
H	-0.3207099	-1.0038596	1.5482494	0	-0.0014154	0.0006719	0.0027408
H	-0.5162398	0.7655197	1.4099595	0	-0.0031174	0.0013324	-0.0001157
H	0.2087699	-1.1743095	-0.8769796	0	-0.0010064	-0.0013756	-0.0034328
H	-0.1710100	0.5241598	-1.1143095	0	0.0001254	0.0007269	-0.0023971
H	3.8158885	0.6957797	0.2217099	0	0.0020118	0.0026667	-0.0006073
