9
Properties=species:S:1:pos:R:3:molID:I:1:forces_dft:R:3 Nmols=1 Comp=VC(1) energy_dft=-7162.993303308373 pbc="F F F"
N	-0.6392497	1.1637595	0.2999199	0	0.0083622	0.0035834	-0.0001066
C	-0.6725697	-0.0460900	0.7967497	0	-0.0018931	-0.0068065	-0.0005009
N	0.4060498	-0.7793197	0.5869298	0	0.0072139	0.0076639	0.0041468
C	1.1684195	-0.1647799	-0.7506197	0	0.0045236	-0.0001366	0.0012402
O	2.0641392	-0.7945197	-1.1688495	0	-0.0117471	-0.0012919	0.0010999
H	-1.5021194	1.6807093	0.2690999	0	-0.0068839	-0.0007256	-0.0000364
H	-1.5489994	-0.4531698	1.3036895	0	-0.0036789	0.0023548	0.0033302
H	0.3868998	-1.7603493	0.8235697	0	-0.0026585	-0.0076976	0.0017274
H	0.2488299	0.9772796	-0.5385698	0	0.0038815	-0.0012015	0.0006348
