12
Properties=species:S:1:pos:R:3:molID:I:1:forces_dft:R:3 Nmols=1 Comp=VC(1) energy_dft=-8333.841054668348 pbc="F F F"
O	2.3359291	-1.4663494	0.5563798	0	-0.0083315	-0.0027059	-0.0042782
C	1.4625494	-0.7051597	0.6727498	0	0.0062689	-0.0018688	0.0049561
C	0.1987299	-0.0317200	-0.6636497	0	0.0055789	0.0048786	0.0032109
C	-0.8482797	-0.6017298	0.2487299	0	0.0032364	-0.0049704	0.0005060
O	-1.2390195	0.6557597	0.7148797	0	-0.0063799	-0.0054167	-0.0069892
C	-0.2699199	1.3230795	-0.1402299	0	-0.0007057	0.0013634	0.0049827
H	0.3646398	-0.9297196	1.2968795	0	-0.0002105	-0.0015931	-0.0003280
H	0.7132197	-0.3325499	-1.5674994	0	-0.0021882	0.0008462	-0.0013749
H	-0.9860596	-0.3281899	-1.1252395	0	-0.0021505	-0.0022245	-0.0036793
H	-1.5330094	-1.4425094	0.2337999	0	-0.0041357	-0.0026893	-0.0029930
H	0.4595498	1.8822392	0.4403298	0	-0.0019464	-0.0016346	-0.0010613
H	-0.7800897	1.9799792	-0.8514197	0	-0.0020546	0.0018063	-0.0003531
