11
Properties=species:S:1:pos:R:3:molID:I:1:forces_dft:R:3 Nmols=1 Comp=VC(1) energy_dft=-8774.139249860600 pbc="F F F"
C	1.2925995	-0.2859699	0.0577100	0	-0.0013848	-0.0017721	-0.0067019
N	-0.0962899	-0.0153600	-0.2447499	0	0.0000256	0.0126109	0.0030528
C	-0.8972097	1.7754393	0.0252700	0	0.0043320	0.0058477	-0.0012190
O	-0.6969997	2.3380991	0.9942096	0	-0.0077563	-0.0135154	0.0150938
C	-0.9910196	-1.0251796	-0.1295399	0	0.0060318	-0.0095548	0.0015293
O	-0.7501897	-2.1748592	0.1701599	0	0.0029994	-0.0011277	0.0042192
H	1.7256093	-0.9719096	-0.6738897	0	0.0045956	-0.0014407	-0.0026190
H	1.3988995	-0.7404897	1.0452196	0	0.0004683	-0.0044922	0.0036830
H	1.8566393	0.6489698	0.0361200	0	-0.0008534	0.0005964	0.0008136
H	-0.8112797	1.1509996	-0.9310396	0	0.0004921	0.0025984	0.0013242
H	-2.0307592	-0.6997297	-0.3494799	0	-0.0045695	-0.0002469	-0.0021782
