18
Properties=species:S:1:pos:R:3:molID:I:1:forces_dft:R:3 Nmols=1 Comp=VC(1) energy_dft=-8899.438689324284 pbc="F F F"
C	-1.5932294	-0.4202198	-1.1529395	0	0.0036758	0.0021470	0.0040910
C	-1.1653895	0.4096898	0.0487800	0	0.0040531	-0.0064710	0.0048918
C	0.3473099	0.4603898	0.2708899	0	0.0053788	-0.0018443	-0.0033416
C	0.7234897	1.3828995	1.4233094	0	-0.0064131	-0.0028052	-0.0033556
N	0.8995996	-0.8756697	0.4736698	0	-0.0022733	0.0045504	-0.0003569
C	1.7039094	-1.7998493	-0.6610598	0	-0.0039658	0.0112062	-0.0044110
O	1.5856594	-1.5065494	-1.7916093	0	0.0056332	-0.0011589	0.0191240
H	-1.1293796	-0.0513200	-2.0694692	0	0.0030274	-0.0018089	-0.0025500
H	-1.3042195	-1.4667594	-1.0443996	0	-0.0036010	-0.0054873	0.0014788
H	-2.6761590	-0.3837098	-1.2820995	0	-0.0046941	-0.0009769	-0.0010461
H	-1.5191594	1.4383594	-0.0689100	0	0.0014606	0.0017779	0.0015732
H	-1.6400294	0.0287000	0.9613196	0	-0.0008858	0.0042618	0.0000067
H	0.8129897	0.8249997	-0.6525497	0	0.0008958	-0.0044865	-0.0046544
H	0.3669299	2.3982090	1.2390895	0	-0.0011845	0.0040472	-0.0000609
H	0.2798299	1.0337196	2.3595391	0	-0.0036502	-0.0004098	0.0009094
H	1.8057993	1.4187994	1.5537594	0	0.0044388	-0.0015017	0.0007373
H	0.4221298	-1.4589994	1.1560295	0	-0.0025780	-0.0007697	0.0022523
H	2.0913692	-1.4404594	0.4900198	0	0.0017834	-0.0063269	-0.0046307
