13
Properties=species:S:1:pos:R:3:molID:I:1:forces_dft:R:3 Nmols=1 Comp=VC(1) energy_dft=-6319.386261927891 pbc="F F F"
C	-1.7552593	0.1035000	0.2466099	0	0.0065580	-0.0003015	-0.0014067
C	-0.4120798	-0.2919399	-0.3664598	0	0.0002225	0.0067667	0.0050857
C	0.7771997	0.0394800	0.4996498	0	0.0287779	0.0068863	0.0066421
C	2.3559991	0.0234500	-0.7854797	0	-0.0018674	-0.0011600	-0.0027863
O	2.0747092	0.6387298	-1.7347893	0	-0.0066727	-0.0137803	0.0075435
H	-1.7920993	1.1775495	0.4429598	0	-0.0064123	0.0044555	-0.0031824
H	-1.9268092	-0.4121298	1.1942095	0	-0.0059787	0.0000671	0.0018252
H	-2.5823490	-0.1419299	-0.4238198	0	-0.0057926	0.0006244	-0.0050734
H	-0.4209998	-1.3652595	-0.5857498	0	-0.0035544	-0.0035342	0.0009639
H	-0.3016799	0.2195999	-1.3292495	0	-0.0038749	0.0027841	-0.0053124
H	0.8366497	1.0935396	0.7848097	0	0.0016380	0.0029295	-0.0008257
H	0.8459697	-0.5818998	1.4009594	0	-0.0013304	-0.0024636	0.0001589
H	2.3007591	-0.5026998	0.1791599	0	-0.0007523	-0.0014239	0.0017443
