12
Properties=species:S:1:pos:R:3:molID:I:1:forces_dft:R:3 Nmols=1 Comp=VC(1) energy_dft=-6755.877237570908 pbc="F F F"
C	-1.4878894	-0.0354600	-0.2469499	0	0.0064437	0.0016965	-0.0014760
N	-0.3053799	-0.2641899	0.5852998	0	0.0044469	-0.0031319	-0.0041624
C	0.7374697	-1.2310795	0.2527099	0	-0.0021867	0.0026324	-0.0105358
O	0.6693897	-1.7285393	-0.8412797	0	-0.0016066	0.0020456	0.0079422
C	1.3908295	0.7023897	0.6454097	0	0.0014299	0.0080471	-0.0049853
H	-1.1824295	-0.1591599	-1.2850695	0	0.0003266	-0.0042765	-0.0037101
H	-1.8773293	0.9672896	-0.0729500	0	-0.0009457	0.0021266	0.0023798
H	-2.2659791	-0.7679997	-0.0286500	0	-0.0031967	-0.0033727	-0.0023079
H	-0.4551698	-0.2100799	1.5843394	0	-0.0025587	0.0012341	0.0057613
H	0.8605196	1.6478093	0.5485298	0	0.0011574	0.0007119	0.0034182
H	2.0774492	0.5286898	-0.1714899	0	0.0015568	-0.0015902	0.0002048
H	1.8385193	0.5503398	1.6170094	0	0.0025554	-0.0035637	0.0044870
