14
Properties=species:S:1:pos:R:3:molID:I:1:forces_dft:R:3 Nmols=1 Comp=VC(1) energy_dft=-8367.593238495248 pbc="F F F"
C	-2.0330492	0.0102100	0.0130500	0	0.0018343	0.0037121	0.0031135
C	-0.6710497	0.4768798	0.5086098	0	-0.0013712	-0.0031860	-0.0025667
C	0.4487798	0.1183800	-0.4546898	0	0.0080316	0.0035454	0.0107326
O	1.6908893	0.6005597	0.0057300	0	0.0140382	-0.0057724	-0.0055494
C	2.7968289	-0.6528697	0.7275697	0	-0.0093051	0.0098486	0.0069561
O	2.4024590	-1.4188394	1.4770194	0	0.0116041	0.0047210	-0.0117113
H	-2.0576992	-1.0741196	-0.1223500	0	-0.0021423	-0.0035051	0.0008054
H	-2.8204489	0.2711199	0.7215197	0	-0.0010214	0.0004617	0.0027799
H	-2.2857891	0.4693098	-0.9459496	0	-0.0020097	-0.0002254	-0.0012824
H	-0.4485098	0.0317200	1.4823494	0	0.0000293	-0.0023153	0.0009939
H	-0.6680697	1.5607094	0.6518598	0	-0.0003714	0.0024740	0.0012572
H	0.4783998	-0.9769896	-0.5818198	0	-0.0045798	-0.0061868	-0.0011328
H	0.2470199	0.5480398	-1.4434294	0	-0.0044724	-0.0008178	-0.0047183
H	2.9202288	0.0358900	-0.2116199	0	-0.0014050	-0.0016942	-0.0037608
