10
Properties=species:S:1:pos:R:3:molID:I:1:forces_dft:R:3 Nmols=1 Comp=VC(1) energy_dft=-9672.915819501100 pbc="F F F"
O	3.0946388	-0.1718399	0.2767399	0	-0.0031849	-0.0047778	-0.0001620
C	2.0463292	-0.5944498	0.3539799	0	0.0148962	0.0008944	0.0044242
N	0.4042899	0.3494199	-0.0965200	0	0.0075451	-0.0083219	-0.0089320
C	-0.5137398	1.2316095	-0.4724098	0	-0.0061023	0.0029844	0.0050370
N	-1.7520493	0.7426297	-0.3839399	0	-0.0078606	-0.0029727	0.0055475
C	-1.5420994	-0.4982798	0.0707000	0	0.0077321	0.0157083	-0.0006546
N	-0.2591099	-0.7607397	0.2514699	0	0.0162005	-0.0006687	0.0002193
H	1.0003096	-1.3053595	0.5329498	0	-0.0126754	-0.0033238	-0.0007455
H	-0.2677299	2.2266191	-0.8081797	0	-0.0085291	-0.0045850	-0.0052520
H	-2.3210991	-1.2174895	0.2712399	0	-0.0057371	-0.0064744	-0.0003143
