11
Properties=species:S:1:pos:R:3:molID:I:1:forces_dft:R:3 Nmols=1 Comp=VC(1) energy_dft=-9234.235246383723 pbc="F F F"
O	-2.1987191	-1.7526393	-0.1666500	0	-0.0008213	-0.0026956	0.0054410
C	-2.3137891	-0.6160098	-0.0030400	0	0.0072709	-0.0062000	-0.0011566
C	-0.4432898	0.2721299	0.0226700	0	0.0021400	-0.0027209	-0.0106371
C	0.3016899	1.4142094	-0.1420499	0	0.0174566	0.0064913	0.0015039
N	1.6442494	1.1362795	-0.1351600	0	-0.0032209	0.0087367	0.0051582
C	1.7198893	-0.1585900	0.0298300	0	-0.0004057	0.0071175	0.0013316
N	0.4936798	-0.7235897	0.1369499	0	-0.0054291	0.0128046	-0.0033176
H	-2.0749292	0.4429498	0.2180599	0	-0.0032726	-0.0028734	0.0008625
H	-0.0548000	2.4257091	-0.2659299	0	-0.0045271	0.0002180	-0.0010183
H	2.6320690	-0.7351197	0.0749500	0	-0.0014893	-0.0075028	-0.0002063
H	0.2939399	-1.7053393	0.2303799	0	-0.0100077	-0.0164798	0.0016717
