17
Properties=species:S:1:pos:R:3:molID:I:1:forces_dft:R:3 Nmols=1 Comp=VC(1) energy_dft=-8428.317182368877 pbc="F F F"
O	1.8323793	-1.4070794	1.9941392	0	0.0154586	-0.0075813	-0.0103557
C	2.6055890	-0.9025396	1.2826095	0	-0.0064088	-0.0054745	0.0005411
C	1.6232493	-0.1828099	-0.3503499	0	0.0319461	0.0032460	0.0362919
C	0.3976798	0.4886998	0.2151799	0	0.0049312	0.0082018	-0.0047090
C	-0.7475197	0.6028998	-0.7673397	0	-0.0042318	-0.0009410	0.0003912
C	-1.6698293	-0.5596398	-0.9722896	0	-0.0010562	0.0096157	0.0056336
C	-2.1594291	0.6749797	-0.2703199	0	-0.0023850	-0.0064902	-0.0137340
H	3.0548288	-0.3348499	0.4541598	0	-0.0004687	0.0017910	-0.0098601
H	2.1890591	0.4478098	-1.0461996	0	-0.0032879	-0.0028062	-0.0068333
H	1.4136095	-1.1452196	-0.8253397	0	-0.0019447	-0.0047148	-0.0024579
H	0.6547998	1.4875194	0.5842098	0	-0.0004503	0.0028924	0.0004317
H	0.0467600	-0.0848200	1.0830196	0	0.0007571	-0.0005239	0.0026356
H	-0.5274998	1.1905296	-1.6529093	0	-0.0061091	-0.0000909	-0.0068219
H	-2.0379592	-0.7623697	-1.9694292	0	-0.0039315	0.0017691	-0.0022083
H	-1.4993794	-1.4443594	-0.3701098	0	-0.0052846	-0.0013985	0.0021058
H	-2.8593089	1.3161295	-0.7899597	0	-0.0028192	0.0001956	-0.0007973
H	-2.3170391	0.6151297	0.7997397	0	-0.0038226	-0.0012068	0.0042890
