8
Properties=species:S:1:pos:R:3:molID:I:1:forces_dft:R:3 Nmols=1 Comp=VC(1) energy_dft=-6229.236984248409 pbc="F F F"
C	-0.9869596	-0.2350399	0.0475000	0	0.0018389	-0.0055774	-0.0008138
O	0.2911899	-0.6425697	0.4682198	0	0.0153631	0.0097643	-0.0107995
C	1.6812694	0.4090098	-0.0575500	0	-0.0018316	0.0074236	-0.0004916
O	1.6037394	1.5464694	0.0023100	0	-0.0003421	0.0001603	0.0005089
H	-0.9408396	0.6388397	-0.6183198	0	-0.0027820	0.0031271	-0.0011671
H	-1.5902494	0.0455900	0.9151697	0	-0.0031113	-0.0018610	0.0007208
H	-1.4949094	-1.0467696	-0.4810598	0	-0.0040248	-0.0031409	-0.0045714
H	1.4367694	-0.7155397	-0.2762599	0	-0.0016080	-0.0094794	0.0052485
