8
Properties=species:S:1:pos:R:3:molID:I:1:forces_dft:R:3 Nmols=1 Comp=VC(1) energy_dft=-6228.067883338886 pbc="F F F"
O	-1.3451195	0.2478899	-0.2250499	0	0.0021730	-0.0040103	-0.0088339
C	-0.3388299	-0.6561797	-0.0314800	0	0.0054292	0.0022836	-0.0038589
C	1.2655895	0.6087598	0.0030600	0	-0.0020526	0.0178586	0.0053356
O	0.7753497	1.6438894	0.2625899	0	-0.0004740	-0.0126561	-0.0077889
H	-1.0433296	1.1062595	0.1244199	0	-0.0031689	0.0004569	0.0038308
H	-0.2940099	-1.0845596	0.9805696	0	-0.0037090	-0.0055012	0.0034919
H	-0.3582399	-1.4335894	-0.7985997	0	-0.0027457	-0.0065392	-0.0007711
H	1.3385895	-0.4324699	-0.3154999	0	-0.0011453	-0.0074045	-0.0031102
