14
Properties=species:S:1:pos:R:3:molID:I:1:forces_dft:R:3 Nmols=1 Comp=VC(1) energy_dft=-8828.657660641809 pbc="F F F"
O	-2.5917590	-0.3542699	-0.9915696	0	0.0001637	0.0208715	-0.0041951
C	-2.4356790	0.5351298	-0.2417799	0	0.0032634	-0.0001421	0.0075944
N	-1.0560996	0.5074298	0.7118197	0	0.0111093	-0.0073320	-0.0025112
C	-0.2723899	-0.6910997	0.9295396	0	-0.0013456	0.0030474	-0.0082393
C	0.8388297	-0.8488096	-0.1146800	0	0.0026245	-0.0116800	0.0105220
C	1.7963893	0.2532699	-0.0651300	0	0.0085303	0.0137442	-0.0020481
C	2.5526490	1.1795796	0.0032000	0	-0.0122755	-0.0123187	-0.0025008
H	-2.2855891	0.9106096	0.9567096	0	-0.0109724	0.0027286	-0.0078996
H	-0.5353698	1.3797394	0.6789598	0	0.0011461	0.0031593	-0.0018772
H	-0.9535896	-1.5418294	0.8444196	0	-0.0033412	-0.0013119	-0.0026785
H	0.1546399	-0.6941297	1.9353993	0	0.0037330	-0.0010306	0.0009040
H	1.3624495	-1.7933893	0.0518700	0	0.0020032	-0.0025074	0.0015032
H	0.3890898	-0.8960196	-1.1089196	0	-0.0035478	0.0023050	-0.0023688
H	3.2368187	1.9934892	0.0538300	0	0.0007496	0.0028682	0.0020955
