11
Properties=species:S:1:pos:R:3:molID:I:1:forces_dft:R:3 Nmols=1 Comp=VC(1) energy_dft=-8773.534656572456 pbc="F F F"
O	1.8396093	-1.2880095	-0.4060198	0	0.0011488	0.0164904	-0.0140283
C	1.6449594	-0.3691599	0.3398699	0	0.0024033	-0.0008154	-0.0009171
C	0.4250198	0.5136698	0.2788299	0	-0.0015113	-0.0071231	-0.0090097
N	-0.5299298	0.0769100	-0.7006597	0	-0.0085652	0.0044210	0.0120821
C	-2.1842591	-0.2551999	-0.2892099	0	-0.0076132	0.0046790	0.0108446
O	-2.4402090	-0.4657498	0.8278697	0	-0.0006949	-0.0043220	-0.0070621
H	2.3793691	-0.1047900	1.1258396	0	0.0023038	0.0004308	0.0003953
H	-0.0346900	0.5143198	1.2772995	0	-0.0001053	-0.0023713	0.0021567
H	0.7782197	1.5374494	0.0983400	0	0.0003679	0.0033506	-0.0054338
H	-0.1626100	-0.6091498	-1.3556695	0	0.0027419	-0.0042692	0.0014824
H	-1.7154893	0.4496998	-1.1964895	0	0.0155653	-0.0047737	-0.0111230
