19
Properties=species:S:1:pos:R:3:molID:I:1:forces_dft:R:3 Nmols=1 Comp=VC(1) energy_dft=-8461.100007332727 pbc="F F F"
C	-2.4729290	-0.8237297	0.3634399	0	-0.0017789	0.0018074	-0.0083386
C	-1.1358795	-0.9922796	-0.3425699	0	0.0147083	-0.0017271	0.0172980
C	-0.0381900	-0.1629600	0.2942399	0	-0.0006774	0.0092471	-0.0035176
C	1.2739795	-0.0579500	-0.3987598	0	-0.0034713	0.0079186	0.0021920
C	2.4432891	0.6396597	0.2522599	0	-0.0066670	-0.0114108	-0.0043774
C	-0.2951499	1.6673894	-0.5130498	0	0.0228322	0.0080821	0.0065369
O	-0.2076899	2.7283789	-0.0439100	0	-0.0037885	-0.0048488	-0.0054310
H	-3.2537087	-1.3977695	-0.1372199	0	-0.0013166	-0.0040126	-0.0015232
H	-2.4187891	-1.1680995	1.3988594	0	0.0026852	-0.0004791	0.0044595
H	-2.7755889	0.2247999	0.3719298	0	-0.0043223	0.0016502	-0.0015114
H	-0.8640997	-2.0535992	-0.3582299	0	-0.0024132	-0.0071553	0.0071544
H	-1.2257195	-0.6836798	-1.3893394	0	-0.0023444	-0.0035188	-0.0062451
H	-0.1325399	0.1545900	1.3291595	0	-0.0040193	-0.0008161	0.0031186
H	1.4540994	-0.7545897	-1.2114595	0	-0.0000216	-0.0075507	-0.0008320
H	0.9056397	-1.0095196	0.5108398	0	-0.0020346	0.0013202	0.0035780
H	3.2596087	0.7342097	-0.4626098	0	0.0011631	-0.0009663	-0.0031236
H	2.8297489	0.1111500	1.1270995	0	0.0004140	-0.0020737	0.0005540
H	2.1606992	1.6468194	0.5714098	0	-0.0042299	0.0020457	-0.0013349
H	0.6127498	1.1380295	-1.2818695	0	-0.0040493	-0.0009002	0.0058912
