12
Properties=species:S:1:pos:R:3:molID:I:1:forces_dft:R:3 Nmols=1 Comp=VC(1) energy_dft=-8796.363823201551 pbc="F F F"
O	-2.2957891	-1.4546894	0.4616598	0	0.0126558	-0.0050435	-0.0016707
C	-1.2519695	-1.4294094	0.9429896	0	-0.0026315	0.0120067	-0.0096988
C	-0.3430499	0.4370998	0.6234298	0	0.0072126	0.0045229	0.0102215
C	1.0842696	0.7996797	0.3937299	0	-0.0050982	-0.0002411	0.0019120
C	0.1713199	0.5688798	-0.7852997	0	-0.0014152	0.0064591	0.0053295
C	0.3490799	-0.6436197	-1.5480894	0	-0.0008978	-0.0064266	-0.0056825
N	0.4902798	-1.6366994	-2.1088791	0	-0.0040176	-0.0126824	0.0045593
H	-0.2693899	-1.1092196	1.3262195	0	0.0005693	-0.0044494	0.0017393
H	-1.0303596	1.2027895	0.9685896	0	-0.0026781	-0.0010165	-0.0001188
H	1.8563393	0.0564100	0.5665498	0	0.0005051	-0.0019542	0.0032813
H	1.4081495	1.8188293	0.5692798	0	-0.0010070	0.0019809	0.0021430
H	-0.1212800	1.4250694	-1.3804594	0	-0.0046921	0.0024190	-0.0013840
