15
Properties=species:S:1:pos:R:3:molID:I:1:forces_dft:R:3 Nmols=1 Comp=VC(1) energy_dft=-9403.651958233548 pbc="F F F"
C	-0.3864799	1.5320594	-0.2153599	0	0.0038190	0.0011466	0.0031308
C	-0.0866200	0.1404599	0.2792999	0	0.0004337	-0.0013740	-0.0026222
C	-0.7582597	-1.0338496	-0.3848498	0	-0.0027577	0.0010077	-0.0058280
C	-1.1440996	-0.6169597	1.0153296	0	0.0044787	0.0010765	-0.0019317
O	1.2231195	-0.0024700	0.7269797	0	0.0244738	0.0056939	-0.0018829
C	2.4618390	-0.5038398	-0.5610398	0	-0.0109488	0.0054783	0.0132201
O	2.5681990	0.0601300	-1.5446694	0	-0.0017762	-0.0105377	-0.0122239
H	0.2377999	1.7775093	-1.0765596	0	-0.0014928	-0.0035503	-0.0041908
H	-0.1815899	2.2580091	0.5735798	0	-0.0007839	-0.0012941	0.0013139
H	-1.4326994	1.6279794	-0.5107198	0	-0.0052630	0.0032102	0.0003643
H	-1.4542094	-0.8413797	-1.1915195	0	-0.0061800	0.0007614	-0.0003011
H	-0.2032799	-1.9582992	-0.4861598	0	-0.0078902	-0.0045887	-0.0019279
H	-2.1077492	-0.1463099	1.1645696	0	-0.0043049	-0.0002457	-0.0047773
H	-0.8123097	-1.2495095	1.8278593	0	-0.0003698	-0.0040169	-0.0015530
H	2.0819992	-1.0479196	0.3914799	0	-0.0011425	0.0057987	0.0011349
