16
Properties=species:S:1:pos:R:3:molID:I:1:forces_dft:R:3 Nmols=1 Comp=VC(1) energy_dft=-8864.722937436571 pbc="F F F"
C	-1.2633695	-0.1797899	1.2658795	0	0.0023379	0.0027344	-0.0056613
C	-1.1681495	-0.0064200	-0.2251599	0	-0.0027813	0.0099131	-0.0046505
N	-0.8520696	1.3267595	-0.7235497	0	0.0092122	-0.0028807	0.0070230
C	0.1132100	0.2405099	-0.9428696	0	0.0028988	0.0030412	0.0091760
C	1.4347895	0.2956699	-0.2609199	0	0.0048116	0.0164847	0.0117541
C	1.8054993	-1.6958293	0.0164800	0	-0.0057388	0.0128870	-0.0110634
O	1.9151092	-2.2127491	-1.0214296	0	-0.0042740	-0.0026998	0.0002425
H	-0.4939598	0.3952698	1.7814093	0	-0.0004220	-0.0046800	-0.0009530
H	-2.2302091	0.1714799	1.6316294	0	-0.0015646	0.0041332	0.0020002
H	-1.1615295	-1.2326295	1.5428494	0	-0.0043495	-0.0077842	-0.0010825
H	-1.9082993	-0.5726398	-0.7855497	0	-0.0012636	-0.0038311	-0.0028635
H	-1.3647794	1.5339394	-1.5713594	0	-0.0008682	-0.0060579	-0.0034656
H	0.1519900	-0.1711599	-1.9470793	0	-0.0021638	-0.0072492	-0.0024999
H	1.4403694	0.9668796	0.6016297	0	0.0023983	-0.0053718	0.0018931
H	2.2723091	0.5210898	-0.9202396	0	0.0001794	-0.0029126	-0.0049921
H	1.6712193	-0.9461296	0.8114697	0	0.0036076	0.0016559	-0.0015835
