12
Properties=species:S:1:pos:R:3:molID:I:1:forces_dft:R:3 Nmols=1 Comp=VC(1) energy_dft=-8234.917956204432 pbc="F F F"
C	-1.5234894	0.1315900	0.6359397	0	0.0072499	-0.0051914	-0.0124456
C	-0.2273199	0.1317899	-0.1081600	0	0.0008464	0.0011961	0.0054043
N	0.2629799	1.1736095	-0.7308897	0	0.0077262	0.0059232	0.0006366
N	0.5452098	-0.9481196	-0.1605899	0	-0.0015993	0.0058011	-0.0108543
C	2.0272492	-0.5513698	-0.5748098	0	0.0117177	-0.0029776	0.0005429
O	2.8250889	-1.4239994	-0.5182898	0	-0.0157807	-0.0035185	-0.0037860
H	-2.0200592	1.0978896	0.5635298	0	-0.0011701	0.0010888	0.0005940
H	-1.3438195	-0.1003800	1.6871993	0	-0.0028225	-0.0035338	0.0033402
H	-2.1847892	-0.6346198	0.2295799	0	-0.0003989	-0.0033667	-0.0021743
H	-0.1797299	2.0674792	-0.6021098	0	-0.0059600	0.0028398	0.0022206
H	0.3080799	-1.7686893	0.3780699	0	-0.0007050	-0.0029623	0.0001957
H	1.4041395	0.8110997	-0.8729496	0	-0.0057425	-0.0032062	-0.0000572
