9
Properties=species:S:1:pos:R:3:molID:I:1:forces_dft:R:3 Nmols=1 Comp=VC(1) energy_dft=-5689.585341475387 pbc="F F F"
C	-1.0027796	0.1751699	0.2915599	0	0.0042312	-0.0015827	-0.0110179
N	0.2020899	0.2404899	-0.5141398	0	0.0035433	0.0046161	0.0310399
C	1.6310594	-0.5152298	-0.1191300	0	0.0060408	-0.0042292	0.0005935
O	1.5876094	-1.3664895	0.6885497	0	0.0013423	-0.0022168	-0.0125184
H	-0.7102397	-0.0645600	1.3156895	0	0.0041175	-0.0030227	0.0032561
H	-1.5432494	1.1230095	0.2870599	0	-0.0012680	0.0002454	0.0021054
H	-1.6682593	-0.6176497	-0.0557100	0	-0.0008022	-0.0045738	-0.0024535
H	0.0808100	0.3145199	-1.5186894	0	-0.0021094	0.0052285	-0.0069229
H	1.4229494	0.7107297	-0.3751799	0	-0.0030194	0.0011982	-0.0023511
