13
Properties=species:S:1:pos:R:3:molID:I:1:forces_dft:R:3 Nmols=1 Comp=VC(1) energy_dft=-10281.963812621714 pbc="F F F"
C	-1.7282293	0.0801599	-1.0952895	0	0.0119784	-0.0072354	0.0120264
O	-1.2645395	-0.0428200	0.2437899	0	-0.0180198	0.0023858	-0.0056332
C	0.0434500	-0.1750600	0.4457498	0	0.0115017	0.0068109	0.0054132
N	0.9733096	-0.1593999	-0.4821098	0	-0.0002191	0.0076964	0.0069410
N	0.4734198	-0.3113499	1.6866693	0	-0.0050207	0.0013554	-0.0014084
C	2.0649192	0.0914799	1.7346093	0	0.0096532	-0.0088140	0.0120684
O	2.5430290	0.1615300	2.8054789	0	-0.0026559	0.0016412	-0.0143545
H	-2.8127789	0.0810500	-1.0330796	0	-0.0066942	-0.0015124	0.0003512
H	-1.3971195	-0.7649497	-1.7020393	0	0.0049114	-0.0008729	-0.0016021
H	-1.3929294	1.0196396	-1.5406094	0	-0.0018500	0.0017226	-0.0039265
H	0.7541297	0.1800999	-1.4020594	0	-0.0069112	0.0042602	-0.0101708
H	-0.1875699	-0.2201199	2.4435890	0	-0.0008159	-0.0019007	0.0031923
H	1.9308792	0.0597500	0.2385399	0	-0.0024610	-0.0018392	-0.0015605
