5
Properties=species:S:1:pos:R:3:molID:I:1:forces_dft:R:3 Nmols=1 Comp=VC(1) energy_dft=-5622.484147902909 pbc="F F F"
O	-1.3115195	-1.1663996	-0.7623197	0	-0.0026503	-0.0027264	0.0037578
C	-1.0813896	-0.1192299	-0.4251599	0	-0.0012316	-0.0053468	-0.0051588
C	0.9777496	0.2809199	0.4366498	0	0.0070923	0.0009566	0.0065339
N	2.0686092	0.1773299	0.8077597	0	-0.0158588	0.0016386	-0.0077903
H	-0.6744197	0.8335697	-0.0435900	0	0.0101831	0.0022283	0.0011187
