10
Properties=species:S:1:pos:R:3:molID:I:1:forces_dft:R:3 Nmols=1 Comp=VC(1) energy_dft=-5252.442089414159 pbc="F F F"
C	-1.0850395	0.2044699	0.0278200	0	0.0041141	0.0008594	0.0025367
C	0.1203100	-0.6883797	-0.0997100	0	0.0059562	0.0112869	-0.0050218
C	1.6903994	0.6058198	-0.0378800	0	-0.0000551	0.0080140	0.0125288
O	1.5026594	1.3803695	0.8131197	0	-0.0069893	-0.0062271	-0.0215082
H	-0.8952996	1.0027496	0.7520997	0	-0.0010608	0.0016548	0.0029636
H	-1.9676292	-0.3383799	0.3777598	0	-0.0049684	0.0019542	0.0022190
H	-1.3458595	0.6684497	-0.9263396	0	-0.0044504	-0.0016154	-0.0042867
H	0.3600199	-1.2488495	0.8068697	0	0.0002175	-0.0015809	0.0036941
H	0.0691800	-1.3795295	-0.9484996	0	-0.0035404	-0.0024431	-0.0003174
H	1.5512694	-0.2067199	-0.7652397	0	0.0022571	-0.0066541	-0.0027248
