14
Properties=species:S:1:pos:R:3:molID:I:1:forces_dft:R:3 Nmols=1 Comp=VC(1) energy_dft=-8367.751663998724 pbc="F F F"
C	-0.4213498	1.5811194	0.1670200	0	-0.0014848	0.0000804	-0.0059085
C	-0.0816700	0.1340900	-0.1509999	0	-0.0023887	0.0019228	0.0018803
C	-1.2661395	-0.7972897	0.0530900	0	0.0091077	-0.0013195	0.0029828
O	0.9907596	-0.2887699	0.6733497	0	0.0387819	-0.0028217	-0.0040994
C	2.3298791	-1.2050595	-0.1483200	0	-0.0044337	-0.0007050	0.0087693
O	2.1007992	-2.0605592	-0.8693697	0	-0.0013154	0.0020729	-0.0091727
H	-1.2381295	1.9371292	-0.4648298	0	-0.0032426	0.0013832	0.0023960
H	-0.7251497	1.6731494	1.2118595	0	-0.0033079	0.0025457	0.0037506
H	0.4443398	2.2254291	0.0054400	0	-0.0015244	0.0008359	-0.0016875
H	0.2262499	0.0694200	-1.2084195	0	-0.0005333	-0.0032274	-0.0027774
H	-0.9921296	-1.8248593	-0.1887399	0	-0.0031070	-0.0035939	0.0006265
H	-2.1049692	-0.5050598	-0.5828198	0	-0.0028106	-0.0003438	-0.0043996
H	-1.5918694	-0.7659197	1.0950596	0	-0.0050333	0.0030646	0.0026627
H	2.3293691	-0.1727999	0.4076599	0	-0.0067936	0.0032319	0.0025161
