11
Properties=species:S:1:pos:R:3:molID:I:1:forces_dft:R:3 Nmols=1 Comp=VC(1) energy_dft=-7298.258413374745 pbc="F F F"
O	-1.3942295	0.6067297	-0.9656096	0	-0.0001792	0.0028400	-0.0021787
C	-0.7171197	0.2251499	0.1621899	0	0.0065042	0.0116731	-0.0077846
C	0.2123099	-0.8963296	-0.0062200	0	0.0077183	0.0080925	0.0001306
C	1.7383993	0.4978698	-0.1245200	0	0.0007470	0.0025043	-0.0007212
O	2.8089589	0.7236097	0.2753199	0	-0.0159573	-0.0071296	-0.0051467
H	-2.2382391	0.9943996	-0.7292797	0	-0.0038070	0.0017075	0.0022203
H	-0.9934496	-1.1637896	0.3163299	0	0.0020575	0.0017631	-0.0052105
H	-1.0893896	0.5235298	1.1348496	0	-0.0037696	-0.0017688	0.0058681
H	0.2775999	-1.3882194	-0.9659496	0	-0.0018515	-0.0019945	-0.0038984
H	0.6728897	-1.3582995	0.8573697	0	0.0002096	-0.0002275	0.0030856
H	0.7359697	1.2367595	0.0426600	0	-0.0030959	-0.0040129	-0.0035209
