16
Properties=species:S:1:pos:R:3:molID:I:1:forces_dft:R:3 Nmols=1 Comp=VC(1) energy_dft=-7388.556302388156 pbc="F F F"
C	-1.2409395	-0.8104397	-0.3138499	0	0.0054253	-0.0039462	0.0018393
C	-0.1972299	0.2973799	-0.1806299	0	-0.0047101	-0.0078543	-0.0042031
C	-0.8006897	1.5352394	0.4852198	0	0.0066867	0.0023716	-0.0002217
C	1.0314596	-0.1932499	0.5485898	0	0.0267759	-0.0060569	0.0006753
C	2.0427692	-1.2953195	-0.8358597	0	0.0042048	0.0232825	-0.0050913
O	2.0698292	-0.7047797	-1.8406893	0	-0.0040477	-0.0113979	0.0170130
H	-2.1163292	-0.4638298	-0.8669497	0	-0.0066064	-0.0029992	-0.0010234
H	-1.5813694	-1.1439795	0.6710697	0	-0.0038184	-0.0021499	0.0013374
H	-0.8442297	-1.6817393	-0.8415597	0	-0.0096325	-0.0054010	-0.0047009
H	0.1188400	0.5902298	-1.1905296	0	0.0054989	0.0015359	-0.0011549
H	-0.0697300	2.3433391	0.5525898	0	0.0011036	-0.0011768	0.0009659
H	-1.6620393	1.9046093	-0.0777400	0	-0.0036880	-0.0012620	0.0003011
H	-1.1374396	1.3049195	1.4999594	0	0.0017698	0.0013878	0.0016598
H	1.7942793	0.5735098	0.7069997	0	0.0017029	-0.0041175	0.0026612
H	0.7961197	-0.6744597	1.5071794	0	0.0060812	0.0005044	-0.0008162
H	1.8074193	-1.6063094	0.1930699	0	-0.0093059	-0.0037685	0.0035480
