13
Properties=species:S:1:pos:R:3:molID:I:1:forces_dft:R:3 Nmols=1 Comp=VC(1) energy_dft=-10381.314412531648 pbc="F F F"
O	-0.6168898	1.1379795	0.4164299	0	0.0135622	-0.0067285	-0.0067815
C	-0.9373696	-0.2183599	0.2500499	0	-0.0015312	-0.0017469	0.0007737
C	-1.2851095	-0.6524597	-1.1336795	0	0.0041621	0.0058946	0.0033338
C	0.0231900	-1.0873396	-0.5246498	0	-0.0021057	-0.0019429	0.0009641
O	1.1861995	-0.5411698	-1.0167396	0	0.0154984	0.0244917	0.0173764
C	2.1374892	0.7189897	0.0030000	0	-0.0174598	0.0004201	-0.0068284
O	2.5008490	0.4949698	1.0576796	0	-0.0018811	-0.0065315	-0.0095864
H	-0.3454799	1.2695695	1.3269395	0	0.0032241	-0.0040300	0.0011038
H	-1.4845494	-0.6580297	1.0780996	0	-0.0026253	0.0018242	0.0040203
H	-2.0860592	-1.3660695	-1.2761595	0	-0.0047589	-0.0040234	0.0004797
H	-1.1950395	0.1074300	-1.8996992	0	-0.0002462	-0.0042897	-0.0020519
H	0.1174099	-2.1223692	-0.2056199	0	0.0000984	-0.0061507	0.0015400
H	1.5565894	0.8169697	-0.9939296	0	0.0080424	-0.0013013	0.0017405
