11
Properties=species:S:1:pos:R:3:molID:I:1:forces_dft:R:3 Nmols=1 Comp=VC(1) energy_dft=-8771.508700659755 pbc="F F F"
C	-1.0272696	1.3661395	-0.0182100	0	-0.0044354	-0.0013622	0.0008810
N	0.0347300	0.3810498	-0.0709200	0	0.0032886	-0.0003223	0.0035123
C	-0.1457500	-0.9154196	0.1900799	0	0.0042054	-0.0058666	-0.0018038
O	-1.1726296	-1.4753794	0.5020598	0	0.0111700	0.0050275	0.0017365
C	1.8279193	-1.7363393	-0.0897800	0	0.0068880	0.0037769	-0.0069994
O	2.5303490	-0.8572797	-0.3915899	0	-0.0106623	0.0033760	0.0047952
H	-1.9480092	0.8470397	0.2427799	0	-0.0053533	0.0010616	0.0052975
H	-0.8214197	2.1247492	0.7390097	0	-0.0022130	-0.0006171	0.0018631
H	-1.1556595	1.8534693	-0.9862496	0	0.0005780	0.0024932	-0.0030760
H	0.9693096	0.6697698	-0.3155799	0	0.0023625	0.0036130	0.0003083
H	0.9084296	-2.2577791	0.1984099	0	-0.0044833	0.0029334	0.0012094
